
     Program PWSCF v.6.8 starts on  4Nov2021 at  9:28:45 

     This program is part of the open-source Quantum ESPRESSO suite
     for quantum simulation of materials; please cite
         "P. Giannozzi et al., J. Phys.:Condens. Matter 21 395502 (2009);
         "P. Giannozzi et al., J. Phys.:Condens. Matter 29 465901 (2017);
         "P. Giannozzi et al., J. Chem. Phys. 152 154105 (2020);
          URL http://www.quantum-espresso.org", 
     in publications or presentations arising from this work. More details at
     http://www.quantum-espresso.org/quote

     Parallel version (MPI), running on     8 processors

     MPI processes distributed on     1 nodes
     K-points division:     npool     =       8
     5982 MiB available memory on the printing compute node when the environment starts

     Waiting for input...
     Reading input from standard input

     Current dimensions of program PWSCF are:
     Max number of different atomic species (ntypx) = 10
     Max number of k-points (npk) =  40000
     Max angular momentum in pseudopotentials (lmaxx) =  4

     Atomic positions and unit cell read from directory:
     ./si.save/
     Atomic positions from file used, from input discarded

     Message from routine scan_end:
     No INFO block end statement, possibly corrupted file
     file Si_HSCV_PBE-1.0.UPF: wavefunction(s)  NL renormalized

     Subspace diagonalization in iterative solution of the eigenvalue problem:
     a serial algorithm will be used


     G-vector sticks info
     --------------------
     sticks:   dense  smooth     PW     G-vecs:    dense   smooth      PW
     Sum         361     361    121                 4573     4573     941

     Using Slab Decomposition



     bravais-lattice index     =            2
     lattice parameter (alat)  =      10.2630  a.u.
     unit-cell volume          =     270.2483 (a.u.)^3
     number of atoms/cell      =            2
     number of atomic types    =            1
     number of electrons       =         8.00
     number of Kohn-Sham states=           20
     kinetic-energy cutoff     =      25.0000  Ry
     charge density cutoff     =     100.0000  Ry
     Exchange-correlation=  SLA  PW   PBE  PBE
                           (   1   4   3   4   0   0   0)

     celldm(1)=  10.263000  celldm(2)=   0.000000  celldm(3)=   0.000000
     celldm(4)=   0.000000  celldm(5)=   0.000000  celldm(6)=   0.000000

     crystal axes: (cart. coord. in units of alat)
               a(1) = (  -0.500000   0.000000   0.500000 )  
               a(2) = (   0.000000   0.500000   0.500000 )  
               a(3) = (  -0.500000   0.500000   0.000000 )  

     reciprocal axes: (cart. coord. in units 2 pi/alat)
               b(1) = ( -1.000000 -1.000000  1.000000 )  
               b(2) = (  1.000000  1.000000  1.000000 )  
               b(3) = ( -1.000000  1.000000 -1.000000 )  


     PseudoPot. # 1 for Si read from file:
     ./pseudo/Si_HSCV_PBE-1.0.UPF
     MD5 check sum: 86ffad5844b02d1761663db2768711ee
     Pseudo is Norm-conserving, Zval =  4.0
     Generated by new atomic code, or converted to UPF format
     Using radial grid of 2000 points,  2 beta functions with: 
                l(1) =   0
                l(2) =   1

     atomic species   valence    mass     pseudopotential
        Si             4.00    28.08550     Si( 1.00)

     48 Sym. Ops., with inversion, found (24 have fractional translation)


                                    s                        frac. trans.

      isym =  1     identity                                     

 cryst.   s( 1) = (     1          0          0      )
                  (     0          1          0      )
                  (     0          0          1      )

 cart.    s( 1) = (  1.0000000  0.0000000  0.0000000 )
                  (  0.0000000  1.0000000  0.0000000 )
                  (  0.0000000  0.0000000  1.0000000 )


      isym =  2     180 deg rotation - cart. axis [0,0,1]        

 cryst.   s( 2) = (     0          1         -1      )
                  (     1          0         -1      )
                  (     0          0         -1      )

 cart.    s( 2) = ( -1.0000000  0.0000000  0.0000000 )
                  (  0.0000000 -1.0000000  0.0000000 )
                  (  0.0000000  0.0000000  1.0000000 )


      isym =  3     180 deg rotation - cart. axis [0,1,0]        

 cryst.   s( 3) = (    -1          0          0      )
                  (    -1          0          1      )
                  (    -1          1          0      )

 cart.    s( 3) = ( -1.0000000  0.0000000  0.0000000 )
                  (  0.0000000  1.0000000  0.0000000 )
                  (  0.0000000  0.0000000 -1.0000000 )


      isym =  4     180 deg rotation - cart. axis [1,0,0]        

 cryst.   s( 4) = (     0         -1          1      )
                  (     0         -1          0      )
                  (     1         -1          0      )

 cart.    s( 4) = (  1.0000000  0.0000000  0.0000000 )
                  (  0.0000000 -1.0000000  0.0000000 )
                  (  0.0000000  0.0000000 -1.0000000 )


      isym =  5     180 deg rotation - cart. axis [1,1,0]        

 cryst.   s( 5) = (     0         -1          0      )    f =(  0.2500000 )
                  (    -1          0          0      )       (  0.2500000 )
                  (     0          0         -1      )       (  0.2500000 )

 cart.    s( 5) = (  0.0000000  1.0000000  0.0000000 )    f =( -0.2500000 )
                  (  1.0000000  0.0000000  0.0000000 )       (  0.2500000 )
                  (  0.0000000  0.0000000 -1.0000000 )       (  0.2500000 )


      isym =  6     180 deg rotation - cart. axis [1,-1,0]       

 cryst.   s( 6) = (    -1          0          1      )    f =(  0.2500000 )
                  (     0         -1          1      )       (  0.2500000 )
                  (     0          0          1      )       (  0.2500000 )

 cart.    s( 6) = (  0.0000000 -1.0000000  0.0000000 )    f =( -0.2500000 )
                  ( -1.0000000  0.0000000  0.0000000 )       (  0.2500000 )
                  (  0.0000000  0.0000000 -1.0000000 )       (  0.2500000 )


      isym =  7      90 deg rotation - cart. axis [0,0,-1]       

 cryst.   s( 7) = (     0          1          0      )    f =(  0.2500000 )
                  (     0          1         -1      )       (  0.2500000 )
                  (    -1          1          0      )       (  0.2500000 )

 cart.    s( 7) = (  0.0000000  1.0000000  0.0000000 )    f =( -0.2500000 )
                  ( -1.0000000  0.0000000  0.0000000 )       (  0.2500000 )
                  (  0.0000000  0.0000000  1.0000000 )       (  0.2500000 )


      isym =  8      90 deg rotation - cart. axis [0,0,1]        

 cryst.   s( 8) = (     1          0         -1      )    f =(  0.2500000 )
                  (     1          0          0      )       (  0.2500000 )
                  (     1         -1          0      )       (  0.2500000 )

 cart.    s( 8) = (  0.0000000 -1.0000000  0.0000000 )    f =( -0.2500000 )
                  (  1.0000000  0.0000000  0.0000000 )       (  0.2500000 )
                  (  0.0000000  0.0000000  1.0000000 )       (  0.2500000 )


      isym =  9     180 deg rotation - cart. axis [1,0,1]        

 cryst.   s( 9) = (    -1          0          0      )    f =(  0.2500000 )
                  (     0          0         -1      )       (  0.2500000 )
                  (     0         -1          0      )       (  0.2500000 )

 cart.    s( 9) = (  0.0000000  0.0000000  1.0000000 )    f =( -0.2500000 )
                  (  0.0000000 -1.0000000  0.0000000 )       (  0.2500000 )
                  (  1.0000000  0.0000000  0.0000000 )       (  0.2500000 )


      isym = 10     180 deg rotation - cart. axis [-1,0,1]       

 cryst.   s(10) = (     1          0          0      )    f =(  0.2500000 )
                  (     1         -1          0      )       (  0.2500000 )
                  (     1          0         -1      )       (  0.2500000 )

 cart.    s(10) = (  0.0000000  0.0000000 -1.0000000 )    f =( -0.2500000 )
                  (  0.0000000 -1.0000000  0.0000000 )       (  0.2500000 )
                  ( -1.0000000  0.0000000  0.0000000 )       (  0.2500000 )


      isym = 11      90 deg rotation - cart. axis [0,1,0]        

 cryst.   s(11) = (     0          1         -1      )    f =(  0.2500000 )
                  (    -1          1          0      )       (  0.2500000 )
                  (     0          1          0      )       (  0.2500000 )

 cart.    s(11) = (  0.0000000  0.0000000  1.0000000 )    f =( -0.2500000 )
                  (  0.0000000  1.0000000  0.0000000 )       (  0.2500000 )
                  ( -1.0000000  0.0000000  0.0000000 )       (  0.2500000 )


      isym = 12      90 deg rotation - cart. axis [0,-1,0]       

 cryst.   s(12) = (     0         -1          1      )    f =(  0.2500000 )
                  (     0          0          1      )       (  0.2500000 )
                  (    -1          0          1      )       (  0.2500000 )

 cart.    s(12) = (  0.0000000  0.0000000 -1.0000000 )    f =( -0.2500000 )
                  (  0.0000000  1.0000000  0.0000000 )       (  0.2500000 )
                  (  1.0000000  0.0000000  0.0000000 )       (  0.2500000 )


      isym = 13     180 deg rotation - cart. axis [0,1,1]        

 cryst.   s(13) = (    -1          1          0      )    f =(  0.2500000 )
                  (     0          1          0      )       (  0.2500000 )
                  (     0          1         -1      )       (  0.2500000 )

 cart.    s(13) = ( -1.0000000  0.0000000  0.0000000 )    f =( -0.2500000 )
                  (  0.0000000  0.0000000  1.0000000 )       (  0.2500000 )
                  (  0.0000000  1.0000000  0.0000000 )       (  0.2500000 )


      isym = 14     180 deg rotation - cart. axis [0,1,-1]       

 cryst.   s(14) = (     0          0         -1      )    f =(  0.2500000 )
                  (     0         -1          0      )       (  0.2500000 )
                  (    -1          0          0      )       (  0.2500000 )

 cart.    s(14) = ( -1.0000000  0.0000000  0.0000000 )    f =( -0.2500000 )
                  (  0.0000000  0.0000000 -1.0000000 )       (  0.2500000 )
                  (  0.0000000 -1.0000000  0.0000000 )       (  0.2500000 )


      isym = 15      90 deg rotation - cart. axis [-1,0,0]       

 cryst.   s(15) = (     0          0          1      )    f =(  0.2500000 )
                  (    -1          0          1      )       (  0.2500000 )
                  (     0         -1          1      )       (  0.2500000 )

 cart.    s(15) = (  1.0000000  0.0000000  0.0000000 )    f =( -0.2500000 )
                  (  0.0000000  0.0000000  1.0000000 )       (  0.2500000 )
                  (  0.0000000 -1.0000000  0.0000000 )       (  0.2500000 )


      isym = 16      90 deg rotation - cart. axis [1,0,0]        

 cryst.   s(16) = (     1         -1          0      )    f =(  0.2500000 )
                  (     1          0         -1      )       (  0.2500000 )
                  (     1          0          0      )       (  0.2500000 )

 cart.    s(16) = (  1.0000000  0.0000000  0.0000000 )    f =( -0.2500000 )
                  (  0.0000000  0.0000000 -1.0000000 )       (  0.2500000 )
                  (  0.0000000  1.0000000  0.0000000 )       (  0.2500000 )


      isym = 17     120 deg rotation - cart. axis [-1,-1,-1]     

 cryst.   s(17) = (    -1          0          1      )
                  (    -1          1          0      )
                  (    -1          0          0      )

 cart.    s(17) = (  0.0000000  1.0000000  0.0000000 )
                  (  0.0000000  0.0000000  1.0000000 )
                  (  1.0000000  0.0000000  0.0000000 )


      isym = 18     120 deg rotation - cart. axis [-1,1,1]       

 cryst.   s(18) = (     0          1          0      )
                  (     0          0          1      )
                  (     1          0          0      )

 cart.    s(18) = (  0.0000000 -1.0000000  0.0000000 )
                  (  0.0000000  0.0000000  1.0000000 )
                  ( -1.0000000  0.0000000  0.0000000 )


      isym = 19     120 deg rotation - cart. axis [1,1,-1]       

 cryst.   s(19) = (     1          0         -1      )
                  (     0          0         -1      )
                  (     0          1         -1      )

 cart.    s(19) = (  0.0000000  1.0000000  0.0000000 )
                  (  0.0000000  0.0000000 -1.0000000 )
                  ( -1.0000000  0.0000000  0.0000000 )


      isym = 20     120 deg rotation - cart. axis [1,-1,1]       

 cryst.   s(20) = (     0         -1          0      )
                  (     1         -1          0      )
                  (     0         -1          1      )

 cart.    s(20) = (  0.0000000 -1.0000000  0.0000000 )
                  (  0.0000000  0.0000000 -1.0000000 )
                  (  1.0000000  0.0000000  0.0000000 )


      isym = 21     120 deg rotation - cart. axis [1,1,1]        

 cryst.   s(21) = (     0          0         -1      )
                  (     0          1         -1      )
                  (     1          0         -1      )

 cart.    s(21) = (  0.0000000  0.0000000  1.0000000 )
                  (  1.0000000  0.0000000  0.0000000 )
                  (  0.0000000  1.0000000  0.0000000 )


      isym = 22     120 deg rotation - cart. axis [-1,1,-1]      

 cryst.   s(22) = (    -1          1          0      )
                  (    -1          0          0      )
                  (    -1          0          1      )

 cart.    s(22) = (  0.0000000  0.0000000  1.0000000 )
                  ( -1.0000000  0.0000000  0.0000000 )
                  (  0.0000000 -1.0000000  0.0000000 )


      isym = 23     120 deg rotation - cart. axis [1,-1,-1]      

 cryst.   s(23) = (     0          0          1      )
                  (     1          0          0      )
                  (     0          1          0      )

 cart.    s(23) = (  0.0000000  0.0000000 -1.0000000 )
                  ( -1.0000000  0.0000000  0.0000000 )
                  (  0.0000000  1.0000000  0.0000000 )


      isym = 24     120 deg rotation - cart. axis [-1,-1,1]      

 cryst.   s(24) = (     1         -1          0      )
                  (     0         -1          1      )
                  (     0         -1          0      )

 cart.    s(24) = (  0.0000000  0.0000000 -1.0000000 )
                  (  1.0000000  0.0000000  0.0000000 )
                  (  0.0000000 -1.0000000  0.0000000 )


      isym = 25     inversion                                    

 cryst.   s(25) = (    -1          0          0      )    f =(  0.2500000 )
                  (     0         -1          0      )       (  0.2500000 )
                  (     0          0         -1      )       (  0.2500000 )

 cart.    s(25) = ( -1.0000000  0.0000000  0.0000000 )    f =( -0.2500000 )
                  (  0.0000000 -1.0000000  0.0000000 )       (  0.2500000 )
                  (  0.0000000  0.0000000 -1.0000000 )       (  0.2500000 )


      isym = 26     inv. 180 deg rotation - cart. axis [0,0,1]   

 cryst.   s(26) = (     0         -1          1      )    f =(  0.2500000 )
                  (    -1          0          1      )       (  0.2500000 )
                  (     0          0          1      )       (  0.2500000 )

 cart.    s(26) = (  1.0000000  0.0000000  0.0000000 )    f =( -0.2500000 )
                  (  0.0000000  1.0000000  0.0000000 )       (  0.2500000 )
                  (  0.0000000  0.0000000 -1.0000000 )       (  0.2500000 )


      isym = 27     inv. 180 deg rotation - cart. axis [0,1,0]   

 cryst.   s(27) = (     1          0          0      )    f =(  0.2500000 )
                  (     1          0         -1      )       (  0.2500000 )
                  (     1         -1          0      )       (  0.2500000 )

 cart.    s(27) = (  1.0000000  0.0000000  0.0000000 )    f =( -0.2500000 )
                  (  0.0000000 -1.0000000  0.0000000 )       (  0.2500000 )
                  (  0.0000000  0.0000000  1.0000000 )       (  0.2500000 )


      isym = 28     inv. 180 deg rotation - cart. axis [1,0,0]   

 cryst.   s(28) = (     0          1         -1      )    f =(  0.2500000 )
                  (     0          1          0      )       (  0.2500000 )
                  (    -1          1          0      )       (  0.2500000 )

 cart.    s(28) = ( -1.0000000  0.0000000  0.0000000 )    f =( -0.2500000 )
                  (  0.0000000  1.0000000  0.0000000 )       (  0.2500000 )
                  (  0.0000000  0.0000000  1.0000000 )       (  0.2500000 )


      isym = 29     inv. 180 deg rotation - cart. axis [1,1,0]   

 cryst.   s(29) = (     0          1          0      )
                  (     1          0          0      )
                  (     0          0          1      )

 cart.    s(29) = (  0.0000000 -1.0000000  0.0000000 )
                  ( -1.0000000  0.0000000  0.0000000 )
                  (  0.0000000  0.0000000  1.0000000 )


      isym = 30     inv. 180 deg rotation - cart. axis [1,-1,0]  

 cryst.   s(30) = (     1          0         -1      )
                  (     0          1         -1      )
                  (     0          0         -1      )

 cart.    s(30) = (  0.0000000  1.0000000  0.0000000 )
                  (  1.0000000  0.0000000  0.0000000 )
                  (  0.0000000  0.0000000  1.0000000 )


      isym = 31     inv.  90 deg rotation - cart. axis [0,0,-1]  

 cryst.   s(31) = (     0         -1          0      )
                  (     0         -1          1      )
                  (     1         -1          0      )

 cart.    s(31) = (  0.0000000 -1.0000000  0.0000000 )
                  (  1.0000000  0.0000000  0.0000000 )
                  (  0.0000000  0.0000000 -1.0000000 )


      isym = 32     inv.  90 deg rotation - cart. axis [0,0,1]   

 cryst.   s(32) = (    -1          0          1      )
                  (    -1          0          0      )
                  (    -1          1          0      )

 cart.    s(32) = (  0.0000000  1.0000000  0.0000000 )
                  ( -1.0000000  0.0000000  0.0000000 )
                  (  0.0000000  0.0000000 -1.0000000 )


      isym = 33     inv. 180 deg rotation - cart. axis [1,0,1]   

 cryst.   s(33) = (     1          0          0      )
                  (     0          0          1      )
                  (     0          1          0      )

 cart.    s(33) = (  0.0000000  0.0000000 -1.0000000 )
                  (  0.0000000  1.0000000  0.0000000 )
                  ( -1.0000000  0.0000000  0.0000000 )


      isym = 34     inv. 180 deg rotation - cart. axis [-1,0,1]  

 cryst.   s(34) = (    -1          0          0      )
                  (    -1          1          0      )
                  (    -1          0          1      )

 cart.    s(34) = (  0.0000000  0.0000000  1.0000000 )
                  (  0.0000000  1.0000000  0.0000000 )
                  (  1.0000000  0.0000000  0.0000000 )


      isym = 35     inv.  90 deg rotation - cart. axis [0,1,0]   

 cryst.   s(35) = (     0         -1          1      )
                  (     1         -1          0      )
                  (     0         -1          0      )

 cart.    s(35) = (  0.0000000  0.0000000 -1.0000000 )
                  (  0.0000000 -1.0000000  0.0000000 )
                  (  1.0000000  0.0000000  0.0000000 )


      isym = 36     inv.  90 deg rotation - cart. axis [0,-1,0]  

 cryst.   s(36) = (     0          1         -1      )
                  (     0          0         -1      )
                  (     1          0         -1      )

 cart.    s(36) = (  0.0000000  0.0000000  1.0000000 )
                  (  0.0000000 -1.0000000  0.0000000 )
                  ( -1.0000000  0.0000000  0.0000000 )


      isym = 37     inv. 180 deg rotation - cart. axis [0,1,1]   

 cryst.   s(37) = (     1         -1          0      )
                  (     0         -1          0      )
                  (     0         -1          1      )

 cart.    s(37) = (  1.0000000  0.0000000  0.0000000 )
                  (  0.0000000  0.0000000 -1.0000000 )
                  (  0.0000000 -1.0000000  0.0000000 )


      isym = 38     inv. 180 deg rotation - cart. axis [0,1,-1]  

 cryst.   s(38) = (     0          0          1      )
                  (     0          1          0      )
                  (     1          0          0      )

 cart.    s(38) = (  1.0000000  0.0000000  0.0000000 )
                  (  0.0000000  0.0000000  1.0000000 )
                  (  0.0000000  1.0000000  0.0000000 )


      isym = 39     inv.  90 deg rotation - cart. axis [-1,0,0]  

 cryst.   s(39) = (     0          0         -1      )
                  (     1          0         -1      )
                  (     0          1         -1      )

 cart.    s(39) = ( -1.0000000  0.0000000  0.0000000 )
                  (  0.0000000  0.0000000 -1.0000000 )
                  (  0.0000000  1.0000000  0.0000000 )


      isym = 40     inv.  90 deg rotation - cart. axis [1,0,0]   

 cryst.   s(40) = (    -1          1          0      )
                  (    -1          0          1      )
                  (    -1          0          0      )

 cart.    s(40) = ( -1.0000000  0.0000000  0.0000000 )
                  (  0.0000000  0.0000000  1.0000000 )
                  (  0.0000000 -1.0000000  0.0000000 )


      isym = 41     inv. 120 deg rotation - cart. axis [-1,-1,-1]

 cryst.   s(41) = (     1          0         -1      )    f =(  0.2500000 )
                  (     1         -1          0      )       (  0.2500000 )
                  (     1          0          0      )       (  0.2500000 )

 cart.    s(41) = (  0.0000000 -1.0000000  0.0000000 )    f =( -0.2500000 )
                  (  0.0000000  0.0000000 -1.0000000 )       (  0.2500000 )
                  ( -1.0000000  0.0000000  0.0000000 )       (  0.2500000 )


      isym = 42     inv. 120 deg rotation - cart. axis [-1,1,1]  

 cryst.   s(42) = (     0         -1          0      )    f =(  0.2500000 )
                  (     0          0         -1      )       (  0.2500000 )
                  (    -1          0          0      )       (  0.2500000 )

 cart.    s(42) = (  0.0000000  1.0000000  0.0000000 )    f =( -0.2500000 )
                  (  0.0000000  0.0000000 -1.0000000 )       (  0.2500000 )
                  (  1.0000000  0.0000000  0.0000000 )       (  0.2500000 )


      isym = 43     inv. 120 deg rotation - cart. axis [1,1,-1]  

 cryst.   s(43) = (    -1          0          1      )    f =(  0.2500000 )
                  (     0          0          1      )       (  0.2500000 )
                  (     0         -1          1      )       (  0.2500000 )

 cart.    s(43) = (  0.0000000 -1.0000000  0.0000000 )    f =( -0.2500000 )
                  (  0.0000000  0.0000000  1.0000000 )       (  0.2500000 )
                  (  1.0000000  0.0000000  0.0000000 )       (  0.2500000 )


      isym = 44     inv. 120 deg rotation - cart. axis [1,-1,1]  

 cryst.   s(44) = (     0          1          0      )    f =(  0.2500000 )
                  (    -1          1          0      )       (  0.2500000 )
                  (     0          1         -1      )       (  0.2500000 )

 cart.    s(44) = (  0.0000000  1.0000000  0.0000000 )    f =( -0.2500000 )
                  (  0.0000000  0.0000000  1.0000000 )       (  0.2500000 )
                  ( -1.0000000  0.0000000  0.0000000 )       (  0.2500000 )


      isym = 45     inv. 120 deg rotation - cart. axis [1,1,1]   

 cryst.   s(45) = (     0          0          1      )    f =(  0.2500000 )
                  (     0         -1          1      )       (  0.2500000 )
                  (    -1          0          1      )       (  0.2500000 )

 cart.    s(45) = (  0.0000000  0.0000000 -1.0000000 )    f =( -0.2500000 )
                  ( -1.0000000  0.0000000  0.0000000 )       (  0.2500000 )
                  (  0.0000000 -1.0000000  0.0000000 )       (  0.2500000 )


      isym = 46     inv. 120 deg rotation - cart. axis [-1,1,-1] 

 cryst.   s(46) = (     1         -1          0      )    f =(  0.2500000 )
                  (     1          0          0      )       (  0.2500000 )
                  (     1          0         -1      )       (  0.2500000 )

 cart.    s(46) = (  0.0000000  0.0000000 -1.0000000 )    f =( -0.2500000 )
                  (  1.0000000  0.0000000  0.0000000 )       (  0.2500000 )
                  (  0.0000000  1.0000000  0.0000000 )       (  0.2500000 )


      isym = 47     inv. 120 deg rotation - cart. axis [1,-1,-1] 

 cryst.   s(47) = (     0          0         -1      )    f =(  0.2500000 )
                  (    -1          0          0      )       (  0.2500000 )
                  (     0         -1          0      )       (  0.2500000 )

 cart.    s(47) = (  0.0000000  0.0000000  1.0000000 )    f =( -0.2500000 )
                  (  1.0000000  0.0000000  0.0000000 )       (  0.2500000 )
                  (  0.0000000 -1.0000000  0.0000000 )       (  0.2500000 )


      isym = 48     inv. 120 deg rotation - cart. axis [-1,-1,1] 

 cryst.   s(48) = (    -1          1          0      )    f =(  0.2500000 )
                  (     0          1         -1      )       (  0.2500000 )
                  (     0          1          0      )       (  0.2500000 )

 cart.    s(48) = (  0.0000000  0.0000000  1.0000000 )    f =( -0.2500000 )
                  ( -1.0000000  0.0000000  0.0000000 )       (  0.2500000 )
                  (  0.0000000  1.0000000  0.0000000 )       (  0.2500000 )


     point group O_h (m-3m) 
     there are 10 classes
     the character table:

       E     8C3   3C2   6C4   6C2'  i     8S6   3s_h  6S4   6s_d 
A_1g   1.00  1.00  1.00  1.00  1.00  1.00  1.00  1.00  1.00  1.00
A_2g   1.00  1.00  1.00 -1.00 -1.00  1.00  1.00  1.00 -1.00 -1.00
E_g    2.00 -1.00  2.00  0.00  0.00  2.00 -1.00  2.00  0.00  0.00
T_1g   3.00  0.00 -1.00  1.00 -1.00  3.00  0.00 -1.00  1.00 -1.00
T_2g   3.00  0.00 -1.00 -1.00  1.00  3.00  0.00 -1.00 -1.00  1.00
A_1u   1.00  1.00  1.00  1.00  1.00 -1.00 -1.00 -1.00 -1.00 -1.00
A_2u   1.00  1.00  1.00 -1.00 -1.00 -1.00 -1.00 -1.00  1.00  1.00
E_u    2.00 -1.00  2.00  0.00  0.00 -2.00  1.00 -2.00  0.00  0.00
T_1u   3.00  0.00 -1.00  1.00 -1.00 -3.00  0.00  1.00 -1.00  1.00
T_2u   3.00  0.00 -1.00 -1.00  1.00 -3.00  0.00  1.00  1.00 -1.00

     the symmetry operations in each class and the name of the first element:

     E        1
          identity                                               
     8C3     17   19   20   18   24   21   22   23
          120 deg rotation - cart. axis [-1,-1,-1]               
     3C2      2    4    3
          180 deg rotation - cart. axis [0,0,1]                  
     6C4      7    8   15   16   12   11
           90 deg rotation - cart. axis [0,0,-1]                 
     6C2'     5    6   14   13   10    9
          180 deg rotation - cart. axis [1,1,0]                  
     i       25
          inversion                                              
     8S6     41   43   44   42   48   45   46   47
          inv. 120 deg rotation - cart. axis [-1,-1,-1]          
     3s_h    26   28   27
          inv. 180 deg rotation - cart. axis [0,0,1]             
     6S4     31   32   39   40   36   35
          inv.  90 deg rotation - cart. axis [0,0,-1]            
     6s_d    29   30   38   37   34   33
          inv. 180 deg rotation - cart. axis [1,1,0]             

   Cartesian axes

     site n.     atom                  positions (alat units)
         1           Si  tau(   1) = (   0.2500000   0.2500000   0.2500000  )
         2           Si  tau(   2) = (   0.0000000   0.0000000   0.0000000  )

   Crystallographic axes

     site n.     atom                  positions (cryst. coord.)
         1           Si  tau(   1) = ( -0.2500000  0.7500000 -0.2500000  )
         2           Si  tau(   2) = (  0.0000000  0.0000000  0.0000000  )

     number of k points=    64
                       cart. coord. in units 2pi/alat
        k(    1) = (   0.0000000   0.0000000   0.0000000), wk =   0.0312500
        k(    2) = (  -0.2500000   0.2500000  -0.2500000), wk =   0.0312500
        k(    3) = (  -0.5000000   0.5000000  -0.5000000), wk =   0.0312500
        k(    4) = (  -0.7500000   0.7500000  -0.7500000), wk =   0.0312500
        k(    5) = (   0.2500000   0.2500000   0.2500000), wk =   0.0312500
        k(    6) = (   0.0000000   0.5000000   0.0000000), wk =   0.0312500
        k(    7) = (  -0.2500000   0.7500000  -0.2500000), wk =   0.0312500
        k(    8) = (  -0.5000000   1.0000000  -0.5000000), wk =   0.0312500
        k(    9) = (   0.5000000   0.5000000   0.5000000), wk =   0.0312500
        k(   10) = (   0.2500000   0.7500000   0.2500000), wk =   0.0312500
        k(   11) = (   0.0000000   1.0000000   0.0000000), wk =   0.0312500
        k(   12) = (  -0.2500000   1.2500000  -0.2500000), wk =   0.0312500
        k(   13) = (   0.7500000   0.7500000   0.7500000), wk =   0.0312500
        k(   14) = (   0.5000000   1.0000000   0.5000000), wk =   0.0312500
        k(   15) = (   0.2500000   1.2500000   0.2500000), wk =   0.0312500
        k(   16) = (   0.0000000   1.5000000   0.0000000), wk =   0.0312500
        k(   17) = (  -0.2500000  -0.2500000   0.2500000), wk =   0.0312500
        k(   18) = (  -0.5000000   0.0000000   0.0000000), wk =   0.0312500
        k(   19) = (  -0.7500000   0.2500000  -0.2500000), wk =   0.0312500
        k(   20) = (  -1.0000000   0.5000000  -0.5000000), wk =   0.0312500
        k(   21) = (   0.0000000   0.0000000   0.5000000), wk =   0.0312500
        k(   22) = (  -0.2500000   0.2500000   0.2500000), wk =   0.0312500
        k(   23) = (  -0.5000000   0.5000000   0.0000000), wk =   0.0312500
        k(   24) = (  -0.7500000   0.7500000  -0.2500000), wk =   0.0312500
        k(   25) = (   0.2500000   0.2500000   0.7500000), wk =   0.0312500
        k(   26) = (   0.0000000   0.5000000   0.5000000), wk =   0.0312500
        k(   27) = (  -0.2500000   0.7500000   0.2500000), wk =   0.0312500
        k(   28) = (  -0.5000000   1.0000000   0.0000000), wk =   0.0312500
        k(   29) = (   0.5000000   0.5000000   1.0000000), wk =   0.0312500
        k(   30) = (   0.2500000   0.7500000   0.7500000), wk =   0.0312500
        k(   31) = (   0.0000000   1.0000000   0.5000000), wk =   0.0312500
        k(   32) = (  -0.2500000   1.2500000   0.2500000), wk =   0.0312500
        k(   33) = (  -0.5000000  -0.5000000   0.5000000), wk =   0.0312500
        k(   34) = (  -0.7500000  -0.2500000   0.2500000), wk =   0.0312500
        k(   35) = (  -1.0000000   0.0000000   0.0000000), wk =   0.0312500
        k(   36) = (  -1.2500000   0.2500000  -0.2500000), wk =   0.0312500
        k(   37) = (  -0.2500000  -0.2500000   0.7500000), wk =   0.0312500
        k(   38) = (  -0.5000000   0.0000000   0.5000000), wk =   0.0312500
        k(   39) = (  -0.7500000   0.2500000   0.2500000), wk =   0.0312500
        k(   40) = (  -1.0000000   0.5000000   0.0000000), wk =   0.0312500
        k(   41) = (   0.0000000   0.0000000   1.0000000), wk =   0.0312500
        k(   42) = (  -0.2500000   0.2500000   0.7500000), wk =   0.0312500
        k(   43) = (  -0.5000000   0.5000000   0.5000000), wk =   0.0312500
        k(   44) = (  -0.7500000   0.7500000   0.2500000), wk =   0.0312500
        k(   45) = (   0.2500000   0.2500000   1.2500000), wk =   0.0312500
        k(   46) = (   0.0000000   0.5000000   1.0000000), wk =   0.0312500
        k(   47) = (  -0.2500000   0.7500000   0.7500000), wk =   0.0312500
        k(   48) = (  -0.5000000   1.0000000   0.5000000), wk =   0.0312500
        k(   49) = (  -0.7500000  -0.7500000   0.7500000), wk =   0.0312500
        k(   50) = (  -1.0000000  -0.5000000   0.5000000), wk =   0.0312500
        k(   51) = (  -1.2500000  -0.2500000   0.2500000), wk =   0.0312500
        k(   52) = (  -1.5000000   0.0000000   0.0000000), wk =   0.0312500
        k(   53) = (  -0.5000000  -0.5000000   1.0000000), wk =   0.0312500
        k(   54) = (  -0.7500000  -0.2500000   0.7500000), wk =   0.0312500
        k(   55) = (  -1.0000000   0.0000000   0.5000000), wk =   0.0312500
        k(   56) = (  -1.2500000   0.2500000   0.2500000), wk =   0.0312500
        k(   57) = (  -0.2500000  -0.2500000   1.2500000), wk =   0.0312500
        k(   58) = (  -0.5000000   0.0000000   1.0000000), wk =   0.0312500
        k(   59) = (  -0.7500000   0.2500000   0.7500000), wk =   0.0312500
        k(   60) = (  -1.0000000   0.5000000   0.5000000), wk =   0.0312500
        k(   61) = (   0.0000000   0.0000000   1.5000000), wk =   0.0312500
        k(   62) = (  -0.2500000   0.2500000   1.2500000), wk =   0.0312500
        k(   63) = (  -0.5000000   0.5000000   1.0000000), wk =   0.0312500
        k(   64) = (  -0.7500000   0.7500000   0.7500000), wk =   0.0312500

                       cryst. coord.
        k(    1) = (   0.0000000   0.0000000   0.0000000), wk =   0.0312500
        k(    2) = (   0.0000000   0.0000000   0.2500000), wk =   0.0312500
        k(    3) = (   0.0000000   0.0000000   0.5000000), wk =   0.0312500
        k(    4) = (   0.0000000   0.0000000   0.7500000), wk =   0.0312500
        k(    5) = (   0.0000000   0.2500000   0.0000000), wk =   0.0312500
        k(    6) = (   0.0000000   0.2500000   0.2500000), wk =   0.0312500
        k(    7) = (   0.0000000   0.2500000   0.5000000), wk =   0.0312500
        k(    8) = (   0.0000000   0.2500000   0.7500000), wk =   0.0312500
        k(    9) = (   0.0000000   0.5000000   0.0000000), wk =   0.0312500
        k(   10) = (   0.0000000   0.5000000   0.2500000), wk =   0.0312500
        k(   11) = (   0.0000000   0.5000000   0.5000000), wk =   0.0312500
        k(   12) = (   0.0000000   0.5000000   0.7500000), wk =   0.0312500
        k(   13) = (   0.0000000   0.7500000   0.0000000), wk =   0.0312500
        k(   14) = (   0.0000000   0.7500000   0.2500000), wk =   0.0312500
        k(   15) = (   0.0000000   0.7500000   0.5000000), wk =   0.0312500
        k(   16) = (   0.0000000   0.7500000   0.7500000), wk =   0.0312500
        k(   17) = (   0.2500000   0.0000000   0.0000000), wk =   0.0312500
        k(   18) = (   0.2500000   0.0000000   0.2500000), wk =   0.0312500
        k(   19) = (   0.2500000   0.0000000   0.5000000), wk =   0.0312500
        k(   20) = (   0.2500000   0.0000000   0.7500000), wk =   0.0312500
        k(   21) = (   0.2500000   0.2500000   0.0000000), wk =   0.0312500
        k(   22) = (   0.2500000   0.2500000   0.2500000), wk =   0.0312500
        k(   23) = (   0.2500000   0.2500000   0.5000000), wk =   0.0312500
        k(   24) = (   0.2500000   0.2500000   0.7500000), wk =   0.0312500
        k(   25) = (   0.2500000   0.5000000   0.0000000), wk =   0.0312500
        k(   26) = (   0.2500000   0.5000000   0.2500000), wk =   0.0312500
        k(   27) = (   0.2500000   0.5000000   0.5000000), wk =   0.0312500
        k(   28) = (   0.2500000   0.5000000   0.7500000), wk =   0.0312500
        k(   29) = (   0.2500000   0.7500000   0.0000000), wk =   0.0312500
        k(   30) = (   0.2500000   0.7500000   0.2500000), wk =   0.0312500
        k(   31) = (   0.2500000   0.7500000   0.5000000), wk =   0.0312500
        k(   32) = (   0.2500000   0.7500000   0.7500000), wk =   0.0312500
        k(   33) = (   0.5000000   0.0000000   0.0000000), wk =   0.0312500
        k(   34) = (   0.5000000   0.0000000   0.2500000), wk =   0.0312500
        k(   35) = (   0.5000000   0.0000000   0.5000000), wk =   0.0312500
        k(   36) = (   0.5000000   0.0000000   0.7500000), wk =   0.0312500
        k(   37) = (   0.5000000   0.2500000   0.0000000), wk =   0.0312500
        k(   38) = (   0.5000000   0.2500000   0.2500000), wk =   0.0312500
        k(   39) = (   0.5000000   0.2500000   0.5000000), wk =   0.0312500
        k(   40) = (   0.5000000   0.2500000   0.7500000), wk =   0.0312500
        k(   41) = (   0.5000000   0.5000000   0.0000000), wk =   0.0312500
        k(   42) = (   0.5000000   0.5000000   0.2500000), wk =   0.0312500
        k(   43) = (   0.5000000   0.5000000   0.5000000), wk =   0.0312500
        k(   44) = (   0.5000000   0.5000000   0.7500000), wk =   0.0312500
        k(   45) = (   0.5000000   0.7500000   0.0000000), wk =   0.0312500
        k(   46) = (   0.5000000   0.7500000   0.2500000), wk =   0.0312500
        k(   47) = (   0.5000000   0.7500000   0.5000000), wk =   0.0312500
        k(   48) = (   0.5000000   0.7500000   0.7500000), wk =   0.0312500
        k(   49) = (   0.7500000   0.0000000   0.0000000), wk =   0.0312500
        k(   50) = (   0.7500000   0.0000000   0.2500000), wk =   0.0312500
        k(   51) = (   0.7500000   0.0000000   0.5000000), wk =   0.0312500
        k(   52) = (   0.7500000   0.0000000   0.7500000), wk =   0.0312500
        k(   53) = (   0.7500000   0.2500000   0.0000000), wk =   0.0312500
        k(   54) = (   0.7500000   0.2500000   0.2500000), wk =   0.0312500
        k(   55) = (   0.7500000   0.2500000   0.5000000), wk =   0.0312500
        k(   56) = (   0.7500000   0.2500000   0.7500000), wk =   0.0312500
        k(   57) = (   0.7500000   0.5000000   0.0000000), wk =   0.0312500
        k(   58) = (   0.7500000   0.5000000   0.2500000), wk =   0.0312500
        k(   59) = (   0.7500000   0.5000000   0.5000000), wk =   0.0312500
        k(   60) = (   0.7500000   0.5000000   0.7500000), wk =   0.0312500
        k(   61) = (   0.7500000   0.7500000   0.0000000), wk =   0.0312500
        k(   62) = (   0.7500000   0.7500000   0.2500000), wk =   0.0312500
        k(   63) = (   0.7500000   0.7500000   0.5000000), wk =   0.0312500
        k(   64) = (   0.7500000   0.7500000   0.7500000), wk =   0.0312500

     Dense  grid:     4573 G-vectors     FFT dimensions: (  24,  24,  24)

     Dynamical RAM for                 wfc:       0.17 MB

     Dynamical RAM for     wfc (w. buffer):       0.17 MB

     Dynamical RAM for           str. fact:       0.07 MB

     Dynamical RAM for           local pot:       0.00 MB

     Dynamical RAM for          nlocal pot:       0.07 MB

     Dynamical RAM for                qrad:       0.07 MB

     Dynamical RAM for          rho,v,vnew:       0.53 MB

     Dynamical RAM for           G-vectors:       0.30 MB

     Dynamical RAM for          h,s,v(r/c):       0.02 MB

     Dynamical RAM for          <psi|beta>:       0.00 MB

     Dynamical RAM for      wfcinit/wfcrot:       0.36 MB

     Estimated static dynamical RAM per process >       1.87 MB

     Estimated max dynamical RAM per process >       2.23 MB

     Estimated total dynamical RAM >      17.83 MB

     The potential is recalculated from file :
     ./si.save/charge-density

     Starting wfcs are   18 randomized atomic wfcs +    2 random wfcs

     Band Structure Calculation
     CG style diagonalization

     Computing kpt #:     1  of     8 on this pool
     total cpu time spent up to now is        0.3 secs

     Computing kpt #:     2  of     8 on this pool
     total cpu time spent up to now is        0.4 secs

     Computing kpt #:     3  of     8 on this pool
     total cpu time spent up to now is        0.5 secs

     Computing kpt #:     4  of     8 on this pool
     total cpu time spent up to now is        0.7 secs

     Computing kpt #:     5  of     8 on this pool
     total cpu time spent up to now is        0.8 secs

     Computing kpt #:     6  of     8 on this pool
     total cpu time spent up to now is        0.9 secs

     Computing kpt #:     7  of     8 on this pool
     total cpu time spent up to now is        1.0 secs

     Computing kpt #:     8  of     8 on this pool
     total cpu time spent up to now is        1.1 secs

     ethr =  1.25E-10,  avg # of iterations = 26.2

     total cpu time spent up to now is        1.1 secs

     End of band structure calculation

          k = 0.0000 0.0000 0.0000 (   537 PWs)   bands (ev):

    -5.7563   6.2194   6.2194   6.2194   8.7917   8.7917   8.7917   9.4620
    13.9992  13.9992  14.0954  17.4844  17.4844  17.4844  21.5219  29.5614
    29.5614  29.5614  30.7595  31.5194

     occupation numbers 
     1.0000   1.0000   1.0000   1.0000   0.0000   0.0000   0.0000   0.0000
     0.0000   0.0000   0.0000   0.0000   0.0000   0.0000   0.0000   0.0000
     0.0000   0.0000   0.0000   0.0000

          k =-0.2500 0.2500-0.2500 (   573 PWs)   bands (ev):

    -4.9548   2.2898   5.4604   5.4604   8.2172   9.7342   9.7342  13.0380
    13.4526  13.4526  15.1703  17.9834  20.9163  20.9163  24.0983  24.0983
    24.0984  26.1224  30.5564  30.5564

     occupation numbers 
     1.0000   1.0000   1.0000   1.0000   0.0000   0.0000   0.0000   0.0000
     0.0000   0.0000   0.0000   0.0000   0.0000   0.0000   0.0000   0.0000
     0.0000   0.0000   0.0000   0.0000

          k =-0.5000 0.5000-0.5000 (   568 PWs)   bands (ev):

    -3.4210  -0.7521   5.0213   5.0213   7.7251   9.5743   9.5743  13.9510
    16.8409  16.8409  17.4674  17.5533  17.5533  18.9528  25.4457  26.0503
    27.9980  27.9980  28.1381  28.1381

     occupation numbers 
     1.0000   1.0000   1.0000   1.0000   0.0000   0.0000   0.0000   0.0000
     0.0000   0.0000   0.0000   0.0000   0.0000   0.0000   0.0000   0.0000
     0.0000   0.0000   0.0000   0.0000

          k =-0.7500 0.7500-0.7500 (   573 PWs)   bands (ev):

    -4.9548   2.2898   5.4604   5.4604   8.2172   9.7342   9.7342  13.0380
    13.4526  13.4526  15.1703  17.9834  20.9163  20.9163  24.0983  24.0983
    24.0984  26.1224  30.5564  30.5564

     occupation numbers 
     1.0000   1.0000   1.0000   1.0000   0.0000   0.0000   0.0000   0.0000
     0.0000   0.0000   0.0000   0.0000   0.0000   0.0000   0.0000   0.0000
     0.0000   0.0000   0.0000   0.0000

          k = 0.2500 0.2500 0.2500 (   573 PWs)   bands (ev):

    -4.9548   2.2898   5.4604   5.4604   8.2172   9.7342   9.7342  13.0380
    13.4526  13.4526  15.1703  17.9834  20.9163  20.9163  24.0983  24.0983
    24.0984  26.1224  30.5564  30.5564

     occupation numbers 
     1.0000   1.0000   1.0000   1.0000   0.0000   0.0000   0.0000   0.0000
     0.0000   0.0000   0.0000   0.0000   0.0000   0.0000   0.0000   0.0000
     0.0000   0.0000   0.0000   0.0000

          k = 0.0000 0.5000 0.0000 (   576 PWs)   bands (ev):

    -4.6719   2.6950   4.3316   4.3316   7.3535   9.3523  11.9777  11.9777
    14.1321  15.2079  17.5694  19.2718  19.2718  19.9655  23.6011  23.6011
    24.6823  26.1859  27.2277  31.2519

     occupation numbers 
     1.0000   1.0000   1.0000   1.0000   0.0000   0.0000   0.0000   0.0000
     0.0000   0.0000   0.0000   0.0000   0.0000   0.0000   0.0000   0.0000
     0.0000   0.0000   0.0000   0.0000

          k =-0.2500 0.7500-0.2500 (   573 PWs)   bands (ev):

    -3.0331  -0.1678   2.6879   4.0164   7.7424  10.6720  11.9283  12.1505
    16.4086  16.7984  18.4163  18.8183  19.1344  23.0219  24.0361  24.7621
    25.5867  25.7435  26.0974  28.8706

     occupation numbers 
     1.0000   1.0000   1.0000   1.0000   0.0000   0.0000   0.0000   0.0000
     0.0000   0.0000   0.0000   0.0000   0.0000   0.0000   0.0000   0.0000
     0.0000   0.0000   0.0000   0.0000

          k =-0.5000 1.0000-0.5000 (   574 PWs)   bands (ev):

    -3.7084   0.7344   2.4705   4.8929   8.6633  11.0153  11.3458  12.3167
    12.7016  15.8434  18.7704  19.3898  19.6111  22.8837  23.4132  23.5819
    24.8999  27.2354  27.9728  30.2574

     occupation numbers 
     1.0000   1.0000   1.0000   1.0000   0.0000   0.0000   0.0000   0.0000
     0.0000   0.0000   0.0000   0.0000   0.0000   0.0000   0.0000   0.0000
     0.0000   0.0000   0.0000   0.0000

          k = 0.5000 0.5000 0.5000 (   568 PWs)   bands (ev):

    -3.4210  -0.7521   5.0213   5.0213   7.7251   9.5743   9.5743  13.9510
    16.8409  16.8409  17.4674  17.5533  17.5533  18.9528  25.4457  26.0503
    27.9980  27.9980  28.1381  28.1381

     occupation numbers 
     1.0000   1.0000   1.0000   1.0000   0.0000   0.0000   0.0000   0.0000
     0.0000   0.0000   0.0000   0.0000   0.0000   0.0000   0.0000   0.0000
     0.0000   0.0000   0.0000   0.0000

          k = 0.2500 0.7500 0.2500 (   573 PWs)   bands (ev):

    -3.0331  -0.1678   2.6879   4.0164   7.7424  10.6720  11.9283  12.1505
    16.4086  16.7984  18.4163  18.8183  19.1344  23.0219  24.0361  24.7621
    25.5867  25.7435  26.0974  28.8706

     occupation numbers 
     1.0000   1.0000   1.0000   1.0000   0.0000   0.0000   0.0000   0.0000
     0.0000   0.0000   0.0000   0.0000   0.0000   0.0000   0.0000   0.0000
     0.0000   0.0000   0.0000   0.0000

          k = 0.0000 1.0000 0.0000 (   588 PWs)   bands (ev):

    -1.6044  -1.6044   3.3692   3.3692   6.9347   6.9347  16.2843  16.2843
    17.2628  17.2628  18.8164  18.8164  19.0474  19.0474  25.1524  25.1524
    25.9580  25.9580  26.4047  26.4047

     occupation numbers 
     1.0000   1.0000   1.0000   1.0000   0.0000   0.0000   0.0000   0.0000
     0.0000   0.0000   0.0000   0.0000   0.0000   0.0000   0.0000   0.0000
     0.0000   0.0000   0.0000   0.0000

          k =-0.2500 1.2500-0.2500 (   573 PWs)   bands (ev):

    -3.0331  -0.1678   2.6879   4.0164   7.7424  10.6720  11.9283  12.1505
    16.4086  16.7984  18.4163  18.8183  19.1344  23.0219  24.0361  24.7621
    25.5867  25.7435  26.0974  28.8706

     occupation numbers 
     1.0000   1.0000   1.0000   1.0000   0.0000   0.0000   0.0000   0.0000
     0.0000   0.0000   0.0000   0.0000   0.0000   0.0000   0.0000   0.0000
     0.0000   0.0000   0.0000   0.0000

          k = 0.7500 0.7500 0.7500 (   573 PWs)   bands (ev):

    -4.9548   2.2898   5.4604   5.4604   8.2172   9.7342   9.7342  13.0380
    13.4526  13.4526  15.1703  17.9834  20.9163  20.9163  24.0983  24.0983
    24.0984  26.1224  30.5564  30.5564

     occupation numbers 
     1.0000   1.0000   1.0000   1.0000   0.0000   0.0000   0.0000   0.0000
     0.0000   0.0000   0.0000   0.0000   0.0000   0.0000   0.0000   0.0000
     0.0000   0.0000   0.0000   0.0000

          k = 0.5000 1.0000 0.5000 (   574 PWs)   bands (ev):

    -3.7084   0.7344   2.4705   4.8929   8.6633  11.0153  11.3458  12.3167
    12.7016  15.8434  18.7704  19.3898  19.6111  22.8837  23.4132  23.5819
    24.8999  27.2354  27.9728  30.2574

     occupation numbers 
     1.0000   1.0000   1.0000   1.0000   0.0000   0.0000   0.0000   0.0000
     0.0000   0.0000   0.0000   0.0000   0.0000   0.0000   0.0000   0.0000
     0.0000   0.0000   0.0000   0.0000

          k = 0.2500 1.2500 0.2500 (   573 PWs)   bands (ev):

    -3.0331  -0.1678   2.6879   4.0164   7.7424  10.6720  11.9283  12.1505
    16.4086  16.7984  18.4163  18.8183  19.1344  23.0219  24.0361  24.7621
    25.5867  25.7435  26.0974  28.8706

     occupation numbers 
     1.0000   1.0000   1.0000   1.0000   0.0000   0.0000   0.0000   0.0000
     0.0000   0.0000   0.0000   0.0000   0.0000   0.0000   0.0000   0.0000
     0.0000   0.0000   0.0000   0.0000

          k = 0.0000 1.5000 0.0000 (   576 PWs)   bands (ev):

    -4.6719   2.6950   4.3316   4.3316   7.3535   9.3523  11.9777  11.9777
    14.1321  15.2079  17.5694  19.2718  19.2718  19.9655  23.6011  23.6011
    24.6823  26.1859  27.2277  31.2519

     occupation numbers 
     1.0000   1.0000   1.0000   1.0000   0.0000   0.0000   0.0000   0.0000
     0.0000   0.0000   0.0000   0.0000   0.0000   0.0000   0.0000   0.0000
     0.0000   0.0000   0.0000   0.0000

          k =-0.2500-0.2500 0.2500 (   573 PWs)   bands (ev):

    -4.9548   2.2898   5.4604   5.4604   8.2172   9.7342   9.7342  13.0380
    13.4526  13.4526  15.1703  17.9834  20.9163  20.9163  24.0983  24.0983
    24.0984  26.1224  30.5564  30.5564

     occupation numbers 
     1.0000   1.0000   1.0000   1.0000   0.0000   0.0000   0.0000   0.0000
     0.0000   0.0000   0.0000   0.0000   0.0000   0.0000   0.0000   0.0000
     0.0000   0.0000   0.0000   0.0000

          k =-0.5000 0.0000 0.0000 (   576 PWs)   bands (ev):

    -4.6719   2.6950   4.3316   4.3316   7.3535   9.3523  11.9777  11.9777
    14.1321  15.2079  17.5694  19.2718  19.2718  19.9655  23.6011  23.6011
    24.6823  26.1859  27.2277  31.2519

     occupation numbers 
     1.0000   1.0000   1.0000   1.0000   0.0000   0.0000   0.0000   0.0000
     0.0000   0.0000   0.0000   0.0000   0.0000   0.0000   0.0000   0.0000
     0.0000   0.0000   0.0000   0.0000

          k =-0.7500 0.2500-0.2500 (   573 PWs)   bands (ev):

    -3.0331  -0.1678   2.6879   4.0164   7.7424  10.6720  11.9283  12.1505
    16.4086  16.7984  18.4163  18.8183  19.1344  23.0219  24.0361  24.7621
    25.5867  25.7435  26.0974  28.8706

     occupation numbers 
     1.0000   1.0000   1.0000   1.0000   0.0000   0.0000   0.0000   0.0000
     0.0000   0.0000   0.0000   0.0000   0.0000   0.0000   0.0000   0.0000
     0.0000   0.0000   0.0000   0.0000

          k =-1.0000 0.5000-0.5000 (   574 PWs)   bands (ev):

    -3.7084   0.7344   2.4705   4.8929   8.6633  11.0153  11.3458  12.3167
    12.7016  15.8434  18.7704  19.3898  19.6111  22.8837  23.4132  23.5819
    24.8999  27.2354  27.9728  30.2574

     occupation numbers 
     1.0000   1.0000   1.0000   1.0000   0.0000   0.0000   0.0000   0.0000
     0.0000   0.0000   0.0000   0.0000   0.0000   0.0000   0.0000   0.0000
     0.0000   0.0000   0.0000   0.0000

          k = 0.0000 0.0000 0.5000 (   576 PWs)   bands (ev):

    -4.6719   2.6950   4.3316   4.3316   7.3535   9.3523  11.9777  11.9777
    14.1321  15.2079  17.5694  19.2718  19.2718  19.9655  23.6011  23.6011
    24.6823  26.1859  27.2277  31.2519

     occupation numbers 
     1.0000   1.0000   1.0000   1.0000   0.0000   0.0000   0.0000   0.0000
     0.0000   0.0000   0.0000   0.0000   0.0000   0.0000   0.0000   0.0000
     0.0000   0.0000   0.0000   0.0000

          k =-0.2500 0.2500 0.2500 (   573 PWs)   bands (ev):

    -4.9548   2.2898   5.4604   5.4604   8.2172   9.7342   9.7342  13.0380
    13.4526  13.4526  15.1703  17.9834  20.9163  20.9163  24.0983  24.0983
    24.0984  26.1224  30.5564  30.5564

     occupation numbers 
     1.0000   1.0000   1.0000   1.0000   0.0000   0.0000   0.0000   0.0000
     0.0000   0.0000   0.0000   0.0000   0.0000   0.0000   0.0000   0.0000
     0.0000   0.0000   0.0000   0.0000

          k =-0.5000 0.5000 0.0000 (   574 PWs)   bands (ev):

    -3.7084   0.7344   2.4705   4.8929   8.6633  11.0153  11.3458  12.3167
    12.7016  15.8434  18.7704  19.3898  19.6111  22.8837  23.4132  23.5819
    24.8999  27.2354  27.9728  30.2574

     occupation numbers 
     1.0000   1.0000   1.0000   1.0000   0.0000   0.0000   0.0000   0.0000
     0.0000   0.0000   0.0000   0.0000   0.0000   0.0000   0.0000   0.0000
     0.0000   0.0000   0.0000   0.0000

          k =-0.7500 0.7500-0.2500 (   573 PWs)   bands (ev):

    -3.0331  -0.1678   2.6879   4.0164   7.7424  10.6720  11.9283  12.1505
    16.4086  16.7984  18.4163  18.8183  19.1344  23.0219  24.0361  24.7621
    25.5867  25.7435  26.0974  28.8706

     occupation numbers 
     1.0000   1.0000   1.0000   1.0000   0.0000   0.0000   0.0000   0.0000
     0.0000   0.0000   0.0000   0.0000   0.0000   0.0000   0.0000   0.0000
     0.0000   0.0000   0.0000   0.0000

          k = 0.2500 0.2500 0.7500 (   573 PWs)   bands (ev):

    -3.0331  -0.1678   2.6879   4.0164   7.7424  10.6720  11.9283  12.1505
    16.4086  16.7984  18.4163  18.8183  19.1344  23.0219  24.0361  24.7621
    25.5867  25.7435  26.0974  28.8706

     occupation numbers 
     1.0000   1.0000   1.0000   1.0000   0.0000   0.0000   0.0000   0.0000
     0.0000   0.0000   0.0000   0.0000   0.0000   0.0000   0.0000   0.0000
     0.0000   0.0000   0.0000   0.0000

          k = 0.0000 0.5000 0.5000 (   574 PWs)   bands (ev):

    -3.7084   0.7344   2.4705   4.8929   8.6633  11.0153  11.3458  12.3167
    12.7016  15.8434  18.7704  19.3898  19.6111  22.8837  23.4132  23.5819
    24.8999  27.2354  27.9728  30.2574

     occupation numbers 
     1.0000   1.0000   1.0000   1.0000   0.0000   0.0000   0.0000   0.0000
     0.0000   0.0000   0.0000   0.0000   0.0000   0.0000   0.0000   0.0000
     0.0000   0.0000   0.0000   0.0000

          k =-0.2500 0.7500 0.2500 (   573 PWs)   bands (ev):

    -3.0331  -0.1678   2.6879   4.0164   7.7424  10.6720  11.9283  12.1505
    16.4086  16.7984  18.4163  18.8183  19.1344  23.0219  24.0361  24.7621
    25.5867  25.7435  26.0974  28.8706

     occupation numbers 
     1.0000   1.0000   1.0000   1.0000   0.0000   0.0000   0.0000   0.0000
     0.0000   0.0000   0.0000   0.0000   0.0000   0.0000   0.0000   0.0000
     0.0000   0.0000   0.0000   0.0000

          k =-0.5000 1.0000 0.0000 (   560 PWs)   bands (ev):

    -1.4409  -1.4409   2.3712   2.3712  10.5035  10.5035  11.1985  11.1985
    16.8036  16.8036  19.1905  19.1905  22.7053  22.7053  24.6468  24.6468
    25.1020  25.1020  26.0300  26.0300

     occupation numbers 
     1.0000   1.0000   1.0000   1.0000   0.0000   0.0000   0.0000   0.0000
     0.0000   0.0000   0.0000   0.0000   0.0000   0.0000   0.0000   0.0000
     0.0000   0.0000   0.0000   0.0000

          k = 0.5000 0.5000 1.0000 (   574 PWs)   bands (ev):

    -3.7084   0.7344   2.4705   4.8929   8.6633  11.0153  11.3458  12.3167
    12.7016  15.8434  18.7704  19.3898  19.6111  22.8837  23.4132  23.5819
    24.8999  27.2354  27.9728  30.2574

     occupation numbers 
     1.0000   1.0000   1.0000   1.0000   0.0000   0.0000   0.0000   0.0000
     0.0000   0.0000   0.0000   0.0000   0.0000   0.0000   0.0000   0.0000
     0.0000   0.0000   0.0000   0.0000

          k = 0.2500 0.7500 0.7500 (   573 PWs)   bands (ev):

    -3.0331  -0.1678   2.6879   4.0164   7.7424  10.6720  11.9283  12.1505
    16.4086  16.7984  18.4163  18.8183  19.1344  23.0219  24.0361  24.7621
    25.5867  25.7435  26.0974  28.8706

     occupation numbers 
     1.0000   1.0000   1.0000   1.0000   0.0000   0.0000   0.0000   0.0000
     0.0000   0.0000   0.0000   0.0000   0.0000   0.0000   0.0000   0.0000
     0.0000   0.0000   0.0000   0.0000

          k = 0.0000 1.0000 0.5000 (   560 PWs)   bands (ev):

    -1.4409  -1.4409   2.3712   2.3712  10.5035  10.5035  11.1985  11.1985
    16.8036  16.8036  19.1905  19.1905  22.7053  22.7053  24.6468  24.6468
    25.1020  25.1020  26.0300  26.0300

     occupation numbers 
     1.0000   1.0000   1.0000   1.0000   0.0000   0.0000   0.0000   0.0000
     0.0000   0.0000   0.0000   0.0000   0.0000   0.0000   0.0000   0.0000
     0.0000   0.0000   0.0000   0.0000

          k =-0.2500 1.2500 0.2500 (   573 PWs)   bands (ev):

    -3.0331  -0.1678   2.6879   4.0164   7.7424  10.6720  11.9283  12.1505
    16.4086  16.7984  18.4163  18.8183  19.1344  23.0219  24.0361  24.7621
    25.5867  25.7435  26.0974  28.8706

     occupation numbers 
     1.0000   1.0000   1.0000   1.0000   0.0000   0.0000   0.0000   0.0000
     0.0000   0.0000   0.0000   0.0000   0.0000   0.0000   0.0000   0.0000
     0.0000   0.0000   0.0000   0.0000

          k =-0.5000-0.5000 0.5000 (   568 PWs)   bands (ev):

    -3.4210  -0.7521   5.0213   5.0213   7.7251   9.5743   9.5743  13.9510
    16.8409  16.8409  17.4674  17.5533  17.5533  18.9528  25.4457  26.0503
    27.9980  27.9980  28.1381  28.1381

     occupation numbers 
     1.0000   1.0000   1.0000   1.0000   0.0000   0.0000   0.0000   0.0000
     0.0000   0.0000   0.0000   0.0000   0.0000   0.0000   0.0000   0.0000
     0.0000   0.0000   0.0000   0.0000

          k =-0.7500-0.2500 0.2500 (   573 PWs)   bands (ev):

    -3.0331  -0.1678   2.6879   4.0164   7.7424  10.6720  11.9283  12.1505
    16.4086  16.7984  18.4163  18.8183  19.1344  23.0219  24.0361  24.7621
    25.5867  25.7435  26.0974  28.8706

     occupation numbers 
     1.0000   1.0000   1.0000   1.0000   0.0000   0.0000   0.0000   0.0000
     0.0000   0.0000   0.0000   0.0000   0.0000   0.0000   0.0000   0.0000
     0.0000   0.0000   0.0000   0.0000

          k =-1.0000 0.0000 0.0000 (   588 PWs)   bands (ev):

    -1.6044  -1.6044   3.3692   3.3692   6.9347   6.9347  16.2843  16.2843
    17.2628  17.2628  18.8164  18.8164  19.0474  19.0474  25.1524  25.1524
    25.9580  25.9580  26.4047  26.4047

     occupation numbers 
     1.0000   1.0000   1.0000   1.0000   0.0000   0.0000   0.0000   0.0000
     0.0000   0.0000   0.0000   0.0000   0.0000   0.0000   0.0000   0.0000
     0.0000   0.0000   0.0000   0.0000

          k =-1.2500 0.2500-0.2500 (   573 PWs)   bands (ev):

    -3.0331  -0.1678   2.6879   4.0164   7.7424  10.6720  11.9283  12.1505
    16.4086  16.7984  18.4163  18.8183  19.1344  23.0219  24.0361  24.7621
    25.5867  25.7435  26.0974  28.8706

     occupation numbers 
     1.0000   1.0000   1.0000   1.0000   0.0000   0.0000   0.0000   0.0000
     0.0000   0.0000   0.0000   0.0000   0.0000   0.0000   0.0000   0.0000
     0.0000   0.0000   0.0000   0.0000

          k =-0.2500-0.2500 0.7500 (   573 PWs)   bands (ev):

    -3.0331  -0.1678   2.6879   4.0164   7.7424  10.6720  11.9283  12.1505
    16.4086  16.7984  18.4163  18.8183  19.1344  23.0219  24.0361  24.7621
    25.5867  25.7435  26.0974  28.8706

     occupation numbers 
     1.0000   1.0000   1.0000   1.0000   0.0000   0.0000   0.0000   0.0000
     0.0000   0.0000   0.0000   0.0000   0.0000   0.0000   0.0000   0.0000
     0.0000   0.0000   0.0000   0.0000

          k =-0.5000 0.0000 0.5000 (   574 PWs)   bands (ev):

    -3.7084   0.7344   2.4705   4.8929   8.6633  11.0153  11.3458  12.3167
    12.7016  15.8434  18.7704  19.3898  19.6111  22.8837  23.4132  23.5819
    24.8999  27.2354  27.9728  30.2574

     occupation numbers 
     1.0000   1.0000   1.0000   1.0000   0.0000   0.0000   0.0000   0.0000
     0.0000   0.0000   0.0000   0.0000   0.0000   0.0000   0.0000   0.0000
     0.0000   0.0000   0.0000   0.0000

          k =-0.7500 0.2500 0.2500 (   573 PWs)   bands (ev):

    -3.0331  -0.1678   2.6879   4.0164   7.7424  10.6720  11.9283  12.1505
    16.4086  16.7984  18.4163  18.8183  19.1344  23.0219  24.0361  24.7621
    25.5867  25.7435  26.0974  28.8706

     occupation numbers 
     1.0000   1.0000   1.0000   1.0000   0.0000   0.0000   0.0000   0.0000
     0.0000   0.0000   0.0000   0.0000   0.0000   0.0000   0.0000   0.0000
     0.0000   0.0000   0.0000   0.0000

          k =-1.0000 0.5000 0.0000 (   560 PWs)   bands (ev):

    -1.4409  -1.4409   2.3712   2.3712  10.5035  10.5035  11.1985  11.1985
    16.8036  16.8036  19.1905  19.1905  22.7053  22.7053  24.6468  24.6468
    25.1020  25.1020  26.0300  26.0300

     occupation numbers 
     1.0000   1.0000   1.0000   1.0000   0.0000   0.0000   0.0000   0.0000
     0.0000   0.0000   0.0000   0.0000   0.0000   0.0000   0.0000   0.0000
     0.0000   0.0000   0.0000   0.0000

          k = 0.0000 0.0000 1.0000 (   588 PWs)   bands (ev):

    -1.6044  -1.6044   3.3692   3.3692   6.9347   6.9347  16.2843  16.2843
    17.2628  17.2628  18.8164  18.8164  19.0474  19.0474  25.1524  25.1524
    25.9580  25.9580  26.4047  26.4047

     occupation numbers 
     1.0000   1.0000   1.0000   1.0000   0.0000   0.0000   0.0000   0.0000
     0.0000   0.0000   0.0000   0.0000   0.0000   0.0000   0.0000   0.0000
     0.0000   0.0000   0.0000   0.0000

          k =-0.2500 0.2500 0.7500 (   573 PWs)   bands (ev):

    -3.0331  -0.1678   2.6879   4.0164   7.7424  10.6720  11.9283  12.1505
    16.4086  16.7984  18.4163  18.8183  19.1344  23.0219  24.0361  24.7621
    25.5867  25.7435  26.0974  28.8706

     occupation numbers 
     1.0000   1.0000   1.0000   1.0000   0.0000   0.0000   0.0000   0.0000
     0.0000   0.0000   0.0000   0.0000   0.0000   0.0000   0.0000   0.0000
     0.0000   0.0000   0.0000   0.0000

          k =-0.5000 0.5000 0.5000 (   568 PWs)   bands (ev):

    -3.4210  -0.7521   5.0213   5.0213   7.7251   9.5743   9.5743  13.9510
    16.8409  16.8409  17.4674  17.5533  17.5533  18.9528  25.4457  26.0503
    27.9980  27.9980  28.1381  28.1381

     occupation numbers 
     1.0000   1.0000   1.0000   1.0000   0.0000   0.0000   0.0000   0.0000
     0.0000   0.0000   0.0000   0.0000   0.0000   0.0000   0.0000   0.0000
     0.0000   0.0000   0.0000   0.0000

          k =-0.7500 0.7500 0.2500 (   573 PWs)   bands (ev):

    -3.0331  -0.1678   2.6879   4.0164   7.7424  10.6720  11.9283  12.1505
    16.4086  16.7984  18.4163  18.8183  19.1344  23.0219  24.0361  24.7621
    25.5867  25.7435  26.0974  28.8706

     occupation numbers 
     1.0000   1.0000   1.0000   1.0000   0.0000   0.0000   0.0000   0.0000
     0.0000   0.0000   0.0000   0.0000   0.0000   0.0000   0.0000   0.0000
     0.0000   0.0000   0.0000   0.0000

          k = 0.2500 0.2500 1.2500 (   573 PWs)   bands (ev):

    -3.0331  -0.1678   2.6879   4.0164   7.7424  10.6720  11.9283  12.1505
    16.4086  16.7984  18.4163  18.8183  19.1344  23.0219  24.0361  24.7621
    25.5867  25.7435  26.0974  28.8706

     occupation numbers 
     1.0000   1.0000   1.0000   1.0000   0.0000   0.0000   0.0000   0.0000
     0.0000   0.0000   0.0000   0.0000   0.0000   0.0000   0.0000   0.0000
     0.0000   0.0000   0.0000   0.0000

          k = 0.0000 0.5000 1.0000 (   560 PWs)   bands (ev):

    -1.4409  -1.4409   2.3712   2.3712  10.5035  10.5035  11.1985  11.1985
    16.8036  16.8036  19.1905  19.1905  22.7053  22.7053  24.6468  24.6468
    25.1020  25.1020  26.0300  26.0300

     occupation numbers 
     1.0000   1.0000   1.0000   1.0000   0.0000   0.0000   0.0000   0.0000
     0.0000   0.0000   0.0000   0.0000   0.0000   0.0000   0.0000   0.0000
     0.0000   0.0000   0.0000   0.0000

          k =-0.2500 0.7500 0.7500 (   573 PWs)   bands (ev):

    -3.0331  -0.1678   2.6879   4.0164   7.7424  10.6720  11.9283  12.1505
    16.4086  16.7984  18.4163  18.8183  19.1344  23.0219  24.0361  24.7621
    25.5867  25.7435  26.0974  28.8706

     occupation numbers 
     1.0000   1.0000   1.0000   1.0000   0.0000   0.0000   0.0000   0.0000
     0.0000   0.0000   0.0000   0.0000   0.0000   0.0000   0.0000   0.0000
     0.0000   0.0000   0.0000   0.0000

          k =-0.5000 1.0000 0.5000 (   574 PWs)   bands (ev):

    -3.7084   0.7344   2.4705   4.8929   8.6633  11.0153  11.3458  12.3167
    12.7016  15.8434  18.7704  19.3898  19.6111  22.8837  23.4132  23.5819
    24.8999  27.2354  27.9728  30.2574

     occupation numbers 
     1.0000   1.0000   1.0000   1.0000   0.0000   0.0000   0.0000   0.0000
     0.0000   0.0000   0.0000   0.0000   0.0000   0.0000   0.0000   0.0000
     0.0000   0.0000   0.0000   0.0000

          k =-0.7500-0.7500 0.7500 (   573 PWs)   bands (ev):

    -4.9548   2.2898   5.4604   5.4604   8.2172   9.7342   9.7342  13.0380
    13.4526  13.4526  15.1703  17.9834  20.9163  20.9163  24.0983  24.0983
    24.0984  26.1224  30.5564  30.5564

     occupation numbers 
     1.0000   1.0000   1.0000   1.0000   0.0000   0.0000   0.0000   0.0000
     0.0000   0.0000   0.0000   0.0000   0.0000   0.0000   0.0000   0.0000
     0.0000   0.0000   0.0000   0.0000

          k =-1.0000-0.5000 0.5000 (   574 PWs)   bands (ev):

    -3.7084   0.7344   2.4705   4.8929   8.6633  11.0153  11.3458  12.3167
    12.7016  15.8434  18.7704  19.3898  19.6111  22.8837  23.4132  23.5819
    24.8999  27.2354  27.9728  30.2574

     occupation numbers 
     1.0000   1.0000   1.0000   1.0000   0.0000   0.0000   0.0000   0.0000
     0.0000   0.0000   0.0000   0.0000   0.0000   0.0000   0.0000   0.0000
     0.0000   0.0000   0.0000   0.0000

          k =-1.2500-0.2500 0.2500 (   573 PWs)   bands (ev):

    -3.0331  -0.1678   2.6879   4.0164   7.7424  10.6720  11.9283  12.1505
    16.4086  16.7984  18.4163  18.8183  19.1344  23.0219  24.0361  24.7621
    25.5867  25.7435  26.0974  28.8706

     occupation numbers 
     1.0000   1.0000   1.0000   1.0000   0.0000   0.0000   0.0000   0.0000
     0.0000   0.0000   0.0000   0.0000   0.0000   0.0000   0.0000   0.0000
     0.0000   0.0000   0.0000   0.0000

          k =-1.5000 0.0000 0.0000 (   576 PWs)   bands (ev):

    -4.6719   2.6950   4.3316   4.3316   7.3535   9.3523  11.9777  11.9777
    14.1321  15.2079  17.5694  19.2718  19.2718  19.9655  23.6011  23.6011
    24.6823  26.1859  27.2277  31.2519

     occupation numbers 
     1.0000   1.0000   1.0000   1.0000   0.0000   0.0000   0.0000   0.0000
     0.0000   0.0000   0.0000   0.0000   0.0000   0.0000   0.0000   0.0000
     0.0000   0.0000   0.0000   0.0000

          k =-0.5000-0.5000 1.0000 (   574 PWs)   bands (ev):

    -3.7084   0.7344   2.4705   4.8929   8.6633  11.0153  11.3458  12.3167
    12.7016  15.8434  18.7704  19.3898  19.6111  22.8837  23.4132  23.5819
    24.8999  27.2354  27.9728  30.2574

     occupation numbers 
     1.0000   1.0000   1.0000   1.0000   0.0000   0.0000   0.0000   0.0000
     0.0000   0.0000   0.0000   0.0000   0.0000   0.0000   0.0000   0.0000
     0.0000   0.0000   0.0000   0.0000

          k =-0.7500-0.2500 0.7500 (   573 PWs)   bands (ev):

    -3.0331  -0.1678   2.6879   4.0164   7.7424  10.6720  11.9283  12.1505
    16.4086  16.7984  18.4163  18.8183  19.1344  23.0219  24.0361  24.7621
    25.5867  25.7435  26.0974  28.8706

     occupation numbers 
     1.0000   1.0000   1.0000   1.0000   0.0000   0.0000   0.0000   0.0000
     0.0000   0.0000   0.0000   0.0000   0.0000   0.0000   0.0000   0.0000
     0.0000   0.0000   0.0000   0.0000

          k =-1.0000 0.0000 0.5000 (   560 PWs)   bands (ev):

    -1.4409  -1.4409   2.3712   2.3712  10.5035  10.5035  11.1985  11.1985
    16.8036  16.8036  19.1905  19.1905  22.7053  22.7053  24.6468  24.6468
    25.1020  25.1020  26.0300  26.0300

     occupation numbers 
     1.0000   1.0000   1.0000   1.0000   0.0000   0.0000   0.0000   0.0000
     0.0000   0.0000   0.0000   0.0000   0.0000   0.0000   0.0000   0.0000
     0.0000   0.0000   0.0000   0.0000

          k =-1.2500 0.2500 0.2500 (   573 PWs)   bands (ev):

    -3.0331  -0.1678   2.6879   4.0164   7.7424  10.6720  11.9283  12.1505
    16.4086  16.7984  18.4163  18.8183  19.1344  23.0219  24.0361  24.7621
    25.5867  25.7435  26.0974  28.8706

     occupation numbers 
     1.0000   1.0000   1.0000   1.0000   0.0000   0.0000   0.0000   0.0000
     0.0000   0.0000   0.0000   0.0000   0.0000   0.0000   0.0000   0.0000
     0.0000   0.0000   0.0000   0.0000

          k =-0.2500-0.2500 1.2500 (   573 PWs)   bands (ev):

    -3.0331  -0.1678   2.6879   4.0164   7.7424  10.6720  11.9283  12.1505
    16.4086  16.7984  18.4163  18.8183  19.1344  23.0219  24.0361  24.7621
    25.5867  25.7435  26.0974  28.8706

     occupation numbers 
     1.0000   1.0000   1.0000   1.0000   0.0000   0.0000   0.0000   0.0000
     0.0000   0.0000   0.0000   0.0000   0.0000   0.0000   0.0000   0.0000
     0.0000   0.0000   0.0000   0.0000

          k =-0.5000 0.0000 1.0000 (   560 PWs)   bands (ev):

    -1.4409  -1.4409   2.3712   2.3712  10.5035  10.5035  11.1985  11.1985
    16.8036  16.8036  19.1905  19.1905  22.7053  22.7053  24.6468  24.6468
    25.1020  25.1020  26.0300  26.0300

     occupation numbers 
     1.0000   1.0000   1.0000   1.0000   0.0000   0.0000   0.0000   0.0000
     0.0000   0.0000   0.0000   0.0000   0.0000   0.0000   0.0000   0.0000
     0.0000   0.0000   0.0000   0.0000

          k =-0.7500 0.2500 0.7500 (   573 PWs)   bands (ev):

    -3.0331  -0.1678   2.6879   4.0164   7.7424  10.6720  11.9283  12.1505
    16.4086  16.7984  18.4163  18.8183  19.1344  23.0219  24.0361  24.7621
    25.5867  25.7435  26.0974  28.8706

     occupation numbers 
     1.0000   1.0000   1.0000   1.0000   0.0000   0.0000   0.0000   0.0000
     0.0000   0.0000   0.0000   0.0000   0.0000   0.0000   0.0000   0.0000
     0.0000   0.0000   0.0000   0.0000

          k =-1.0000 0.5000 0.5000 (   574 PWs)   bands (ev):

    -3.7084   0.7344   2.4705   4.8929   8.6633  11.0153  11.3458  12.3167
    12.7016  15.8434  18.7704  19.3898  19.6111  22.8837  23.4132  23.5819
    24.8999  27.2354  27.9728  30.2574

     occupation numbers 
     1.0000   1.0000   1.0000   1.0000   0.0000   0.0000   0.0000   0.0000
     0.0000   0.0000   0.0000   0.0000   0.0000   0.0000   0.0000   0.0000
     0.0000   0.0000   0.0000   0.0000

          k = 0.0000 0.0000 1.5000 (   576 PWs)   bands (ev):

    -4.6719   2.6950   4.3316   4.3316   7.3535   9.3523  11.9777  11.9777
    14.1321  15.2079  17.5694  19.2718  19.2718  19.9655  23.6011  23.6011
    24.6823  26.1859  27.2277  31.2519

     occupation numbers 
     1.0000   1.0000   1.0000   1.0000   0.0000   0.0000   0.0000   0.0000
     0.0000   0.0000   0.0000   0.0000   0.0000   0.0000   0.0000   0.0000
     0.0000   0.0000   0.0000   0.0000

          k =-0.2500 0.2500 1.2500 (   573 PWs)   bands (ev):

    -3.0331  -0.1678   2.6879   4.0164   7.7424  10.6720  11.9283  12.1505
    16.4086  16.7984  18.4163  18.8183  19.1344  23.0219  24.0361  24.7621
    25.5867  25.7435  26.0974  28.8706

     occupation numbers 
     1.0000   1.0000   1.0000   1.0000   0.0000   0.0000   0.0000   0.0000
     0.0000   0.0000   0.0000   0.0000   0.0000   0.0000   0.0000   0.0000
     0.0000   0.0000   0.0000   0.0000

          k =-0.5000 0.5000 1.0000 (   574 PWs)   bands (ev):

    -3.7084   0.7344   2.4705   4.8929   8.6633  11.0153  11.3458  12.3167
    12.7016  15.8434  18.7704  19.3898  19.6111  22.8837  23.4132  23.5819
    24.8999  27.2354  27.9728  30.2574

     occupation numbers 
     1.0000   1.0000   1.0000   1.0000   0.0000   0.0000   0.0000   0.0000
     0.0000   0.0000   0.0000   0.0000   0.0000   0.0000   0.0000   0.0000
     0.0000   0.0000   0.0000   0.0000

          k =-0.7500 0.7500 0.7500 (   573 PWs)   bands (ev):

    -4.9548   2.2898   5.4604   5.4604   8.2172   9.7342   9.7342  13.0380
    13.4526  13.4526  15.1703  17.9834  20.9163  20.9163  24.0983  24.0983
    24.0984  26.1224  30.5564  30.5564

     occupation numbers 
     1.0000   1.0000   1.0000   1.0000   0.0000   0.0000   0.0000   0.0000
     0.0000   0.0000   0.0000   0.0000   0.0000   0.0000   0.0000   0.0000
     0.0000   0.0000   0.0000   0.0000

     highest occupied, lowest unoccupied level (ev):     6.2194    6.9347

     Writing output data file ./si.save/

     init_run     :      0.05s CPU      0.05s WALL (       1 calls)
     electrons    :      0.91s CPU      0.94s WALL (       1 calls)

     Called by init_run:
     wfcinit      :      0.00s CPU      0.00s WALL (       1 calls)
     wfcinit:atom :      0.00s CPU      0.00s WALL (       8 calls)
     wfcinit:wfcr :      0.03s CPU      0.03s WALL (       8 calls)
     potinit      :      0.01s CPU      0.01s WALL (       1 calls)
     hinit0       :      0.04s CPU      0.04s WALL (       1 calls)

     Called by electrons:
     c_bands      :      0.91s CPU      0.94s WALL (       1 calls)
     v_of_rho     :      0.00s CPU      0.00s WALL (       1 calls)
     v_h          :      0.00s CPU      0.00s WALL (       1 calls)
     v_xc         :      0.00s CPU      0.00s WALL (       1 calls)

     Called by c_bands:
     init_us_2    :      0.00s CPU      0.00s WALL (       8 calls)
     ccgdiagg     :      0.67s CPU      0.70s WALL (      18 calls)
     wfcrot       :      0.07s CPU      0.07s WALL (      18 calls)

     Called by sum_band:

     Called by *cgdiagg:
     h_psi        :      0.59s CPU      0.62s WALL (    3643 calls)

     Called by h_psi:
     h_psi:calbec :      0.02s CPU      0.02s WALL (    3643 calls)
     vloc_psi     :      0.55s CPU      0.57s WALL (    3643 calls)
     add_vuspsi   :      0.02s CPU      0.02s WALL (    3643 calls)
     hs_1psi      :      0.55s CPU      0.57s WALL (    3625 calls)
     s_1psi       :      0.02s CPU      0.02s WALL (    3625 calls)

     General routines
     calbec       :      0.04s CPU      0.04s WALL (    7268 calls)
     fft          :      0.00s CPU      0.00s WALL (      10 calls)
     fftw         :      0.49s CPU      0.51s WALL (    7970 calls)
     davcio       :      0.00s CPU      0.00s WALL (      16 calls)

     Parallel routines

     PWSCF        :      1.11s CPU      1.15s WALL


   This run was terminated on:   9:28:46   4Nov2021            

=------------------------------------------------------------------------------=
   JOB DONE.
=------------------------------------------------------------------------------=
