
             +---------------------------------------------------+
             |                                                   |
             |                   WANNIER90                       |
             |                                                   |
             +---------------------------------------------------+
             |                                                   |
             |        Welcome to the Maximally-Localized         |
             |        Generalized Wannier Functions code         |
             |            http://www.wannier.org                 |
             |                                                   |
             |                                                   |
             |  Wannier90 Developer Group:                       |
             |    Giovanni Pizzi    (EPFL)                       |
             |    Valerio Vitale    (Cambridge)                  |
             |    David Vanderbilt  (Rutgers University)         |
             |    Nicola Marzari    (EPFL)                       |
             |    Ivo Souza         (Universidad del Pais Vasco) |
             |    Arash A. Mostofi  (Imperial College London)    |
             |    Jonathan R. Yates (University of Oxford)       |
             |                                                   |
             |  For the full list of Wannier90 3.x authors,      |
             |  please check the code documentation and the      |
             |  README on the GitHub page of the code            |
             |                                                   |
             |                                                   |
             |  Please cite                                      |
             |                                                   |
             |  [ref] "Wannier90 as a community code:            |
             |        new features and applications",            |
             |        G. Pizzi et al., J. Phys. Cond. Matt. 32,  |
             |        165902 (2020).                             |
             |        http://doi.org/10.1088/1361-648X/ab51ff    |
             |                                                   |
             |  in any publications arising from the use of      |
             |  this code. For the method please cite            |
             |                                                   |
             |  [ref] "Maximally Localized Generalised Wannier   |
             |         Functions for Composite Energy Bands"     |
             |         N. Marzari and D. Vanderbilt              |
             |         Phys. Rev. B 56 12847 (1997)              |
             |                                                   |
             |  [ref] "Maximally Localized Wannier Functions     |
             |         for Entangled Energy Bands"               |
             |         I. Souza, N. Marzari and D. Vanderbilt    |
             |         Phys. Rev. B 65 035109 (2001)             |
             |                                                   |
             |                                                   |
             | Copyright (c) 1996-2020                           |
             |        The Wannier90 Developer Group and          |
             |        individual contributors                    |
             |                                                   |
             |      Release: 3.1.0        5th March    2020      |
             |                                                   |
             | This program is free software; you can            |
             | redistribute it and/or modify it under the terms  |
             | of the GNU General Public License as published by |
             | the Free Software Foundation; either version 2 of |
             | the License, or (at your option) any later version|
             |                                                   |
             | This program is distributed in the hope that it   |
             | will be useful, but WITHOUT ANY WARRANTY; without |
             | even the implied warranty of MERCHANTABILITY or   |
             | FITNESS FOR A PARTICULAR PURPOSE. See the GNU     |
             | General Public License for more details.          |
             |                                                   |
             | You should have received a copy of the GNU General|
             | Public License along with this program; if not,   |
             | write to the Free Software Foundation, Inc.,      |
             | 675 Mass Ave, Cambridge, MA 02139, USA.           |
             |                                                   |
             +---------------------------------------------------+
             |    Execution started on 26Jan2022 at 10:37:32     |
             +---------------------------------------------------+
 
 ******************************************************************************
 * -> Using CODATA 2006 constant values                                       *
 *    (http://physics.nist.gov/cuu/Constants/index.html)                      *
 * -> Using Bohr value from CODATA                                            *
 ******************************************************************************
 

 Running in serial (with serial executable)

                                    ------
                                    SYSTEM
                                    ------

                            Lattice Vectors (Bohr)
                    a_1    -5.131500   0.000000   5.131500
                    a_2     0.000000   5.131500   5.131500
                    a_3    -5.131500   5.131500   0.000000

                   Unit Cell Volume:     270.24832  (Bohr^3)

                      Reciprocal-Space Vectors (Bohr^-1)
                    b_1    -0.612217  -0.612217   0.612217
                    b_2     0.612217   0.612217   0.612217
                    b_3    -0.612217   0.612217  -0.612217
  
 *----------------------------------------------------------------------------*
 |   Site       Fractional Coordinate          Cartesian Coordinate (Bohr)    |
 +----------------------------------------------------------------------------+
 | Si   1  -0.25000   0.75000  -0.25000   |    2.56575   2.56575   2.56575    |
 | Si   2   0.00000   0.00000   0.00000   |    0.00000   0.00000   0.00000    |
 *----------------------------------------------------------------------------*
                                ------------
                                K-POINT GRID
                                ------------
  
             Grid size =  4 x  4 x  4      Total points =   64
  
 *----------------------------------------------------------------------------*
 | k-point      Fractional Coordinate        Cartesian Coordinate (Bohr^-1)   |
 +----------------------------------------------------------------------------+
 |     1    0.00000   0.00000   0.00000   |    0.00000   0.00000   0.00000    |
 |     2    0.00000   0.00000   0.25000   |   -0.15305   0.15305  -0.15305    |
 |     3    0.00000   0.00000   0.50000   |   -0.30611   0.30611  -0.30611    |
 |     4    0.00000   0.00000   0.75000   |   -0.45916   0.45916  -0.45916    |
 |     5    0.00000   0.25000   0.00000   |    0.15305   0.15305   0.15305    |
 |     6    0.00000   0.25000   0.25000   |    0.00000   0.30611   0.00000    |
 |     7    0.00000   0.25000   0.50000   |   -0.15305   0.45916  -0.15305    |
 |     8    0.00000   0.25000   0.75000   |   -0.30611   0.61222  -0.30611    |
 |     9    0.00000   0.50000   0.00000   |    0.30611   0.30611   0.30611    |
 |    10    0.00000   0.50000   0.25000   |    0.15305   0.45916   0.15305    |
 |    11    0.00000   0.50000   0.50000   |    0.00000   0.61222   0.00000    |
 |    12    0.00000   0.50000   0.75000   |   -0.15305   0.76527  -0.15305    |
 |    13    0.00000   0.75000   0.00000   |    0.45916   0.45916   0.45916    |
 |    14    0.00000   0.75000   0.25000   |    0.30611   0.61222   0.30611    |
 |    15    0.00000   0.75000   0.50000   |    0.15305   0.76527   0.15305    |
 |    16    0.00000   0.75000   0.75000   |    0.00000   0.91833   0.00000    |
 |    17    0.25000   0.00000   0.00000   |   -0.15305  -0.15305   0.15305    |
 |    18    0.25000   0.00000   0.25000   |   -0.30611   0.00000   0.00000    |
 |    19    0.25000   0.00000   0.50000   |   -0.45916   0.15305  -0.15305    |
 |    20    0.25000   0.00000   0.75000   |   -0.61222   0.30611  -0.30611    |
 |    21    0.25000   0.25000   0.00000   |    0.00000   0.00000   0.30611    |
 |    22    0.25000   0.25000   0.25000   |   -0.15305   0.15305   0.15305    |
 |    23    0.25000   0.25000   0.50000   |   -0.30611   0.30611   0.00000    |
 |    24    0.25000   0.25000   0.75000   |   -0.45916   0.45916  -0.15305    |
 |    25    0.25000   0.50000   0.00000   |    0.15305   0.15305   0.45916    |
 |    26    0.25000   0.50000   0.25000   |    0.00000   0.30611   0.30611    |
 |    27    0.25000   0.50000   0.50000   |   -0.15305   0.45916   0.15305    |
 |    28    0.25000   0.50000   0.75000   |   -0.30611   0.61222   0.00000    |
 |    29    0.25000   0.75000   0.00000   |    0.30611   0.30611   0.61222    |
 |    30    0.25000   0.75000   0.25000   |    0.15305   0.45916   0.45916    |
 |    31    0.25000   0.75000   0.50000   |    0.00000   0.61222   0.30611    |
 |    32    0.25000   0.75000   0.75000   |   -0.15305   0.76527   0.15305    |
 |    33    0.50000   0.00000   0.00000   |   -0.30611  -0.30611   0.30611    |
 |    34    0.50000   0.00000   0.25000   |   -0.45916  -0.15305   0.15305    |
 |    35    0.50000   0.00000   0.50000   |   -0.61222   0.00000   0.00000    |
 |    36    0.50000   0.00000   0.75000   |   -0.76527   0.15305  -0.15305    |
 |    37    0.50000   0.25000   0.00000   |   -0.15305  -0.15305   0.45916    |
 |    38    0.50000   0.25000   0.25000   |   -0.30611   0.00000   0.30611    |
 |    39    0.50000   0.25000   0.50000   |   -0.45916   0.15305   0.15305    |
 |    40    0.50000   0.25000   0.75000   |   -0.61222   0.30611   0.00000    |
 |    41    0.50000   0.50000   0.00000   |    0.00000   0.00000   0.61222    |
 |    42    0.50000   0.50000   0.25000   |   -0.15305   0.15305   0.45916    |
 |    43    0.50000   0.50000   0.50000   |   -0.30611   0.30611   0.30611    |
 |    44    0.50000   0.50000   0.75000   |   -0.45916   0.45916   0.15305    |
 |    45    0.50000   0.75000   0.00000   |    0.15305   0.15305   0.76527    |
 |    46    0.50000   0.75000   0.25000   |    0.00000   0.30611   0.61222    |
 |    47    0.50000   0.75000   0.50000   |   -0.15305   0.45916   0.45916    |
 |    48    0.50000   0.75000   0.75000   |   -0.30611   0.61222   0.30611    |
 |    49    0.75000   0.00000   0.00000   |   -0.45916  -0.45916   0.45916    |
 |    50    0.75000   0.00000   0.25000   |   -0.61222  -0.30611   0.30611    |
 |    51    0.75000   0.00000   0.50000   |   -0.76527  -0.15305   0.15305    |
 |    52    0.75000   0.00000   0.75000   |   -0.91833   0.00000   0.00000    |
 |    53    0.75000   0.25000   0.00000   |   -0.30611  -0.30611   0.61222    |
 |    54    0.75000   0.25000   0.25000   |   -0.45916  -0.15305   0.45916    |
 |    55    0.75000   0.25000   0.50000   |   -0.61222   0.00000   0.30611    |
 |    56    0.75000   0.25000   0.75000   |   -0.76527   0.15305   0.15305    |
 |    57    0.75000   0.50000   0.00000   |   -0.15305  -0.15305   0.76527    |
 |    58    0.75000   0.50000   0.25000   |   -0.30611   0.00000   0.61222    |
 |    59    0.75000   0.50000   0.50000   |   -0.45916   0.15305   0.45916    |
 |    60    0.75000   0.50000   0.75000   |   -0.61222   0.30611   0.30611    |
 |    61    0.75000   0.75000   0.00000   |    0.00000   0.00000   0.91833    |
 |    62    0.75000   0.75000   0.25000   |   -0.15305   0.15305   0.76527    |
 |    63    0.75000   0.75000   0.50000   |   -0.30611   0.30611   0.61222    |
 |    64    0.75000   0.75000   0.75000   |   -0.45916   0.45916   0.45916    |
 *----------------------------------------------------------------------------*
  
  
 *---------------------------------- MAIN ------------------------------------*
 |  Number of Wannier Functions               :                 4             |
 |  Number of Objective Wannier Functions     :                 4             |
 |  Number of input Bloch states              :                 4             |
 |  Output verbosity (1=low, 5=high)          :                 2             |
 |  Timing Level (1=low, 5=high)              :                 1             |
 |  Optimisation (0=memory, 3=speed)          :                 3             |
 |  Length Unit                               :              Bohr             |
 |  Post-processing setup (write *.nnkp)      :                 F             |
 |  Using Gamma-only branch of algorithms     :                 F             |
 *----------------------------------------------------------------------------*
 *------------------------------- WANNIERISE ---------------------------------*
 |  Total number of iterations                :                80             |
 |  Number of CG steps before reset           :                 5             |
 |  Trial step length for line search         :             2.000             |
 |  Convergence tolerence                     :         0.100E-09             |
 |  Convergence window                        :                -1             |
 |  Iterations between writing output         :                 1             |
 |  Iterations between backing up to disk     :               100             |
 |  Write r^2_nm to file                      :                 F             |
 |  Write xyz WF centres to file              :                 T             |
 |  Write on-site energies <0n|H|0n> to file  :                 F             |
 |  Use guiding centre to control phases      :                 F             |
 |  Use phases for initial projections        :                 F             |
 *----------------------------------------------------------------------------*
 Time to read parameters        0.004 (sec)

 *---------------------------------- K-MESH ----------------------------------*
 +----------------------------------------------------------------------------+
 |                    Distance to Nearest-Neighbour Shells                    |
 |                    ------------------------------------                    |
 |          Shell             Distance (Bohr^-1)         Multiplicity         |
 |          -----             ------------------         ------------         |
 |             1                   0.265098                      8            |
 |             2                   0.306109                      6            |
 |             3                   0.432903                     12            |
 |             4                   0.507624                     24            |
 |             5                   0.530196                      8            |
 |             6                   0.612217                      6            |
 |             7                   0.667148                     24            |
 |             8                   0.684480                     24            |
 |             9                   0.749810                     24            |
 |            10                   0.795293                     32            |
 |            11                   0.865806                     12            |
 |            12                   0.905481                     48            |
 |            13                   0.918326                     30            |
 |            14                   0.968000                     24            |
 |            15                   1.003644                     24            |
 |            16                   1.015247                     24            |
 |            17                   1.060391                      8            |
 |            18                   1.093026                     48            |
 |            19                   1.103690                     24            |
 |            20                   1.145354                     48            |
 |            21                   1.175632                     72            |
 |            22                   1.224434                      6            |
 |            23                   1.252803                     24            |
 |            24                   1.262118                     48            |
 |            25                   1.298709                     36            |
 |            26                   1.325489                     56            |
 |            27                   1.334296                     24            |
 |            28                   1.368959                     24            |
 |            29                   1.394391                     72            |
 |            30                   1.402766                     48            |
 |            31                   1.435777                     24            |
 |            32                   1.460045                     48            |
 |            33                   1.499620                     24            |
 |            34                   1.522871                     72            |
 |            35                   1.530543                     30            |
 |            36                   1.560854                     72            |
 +----------------------------------------------------------------------------+
 | The b-vectors are chosen automatically                                     |
 | Shell:  1 w_b    5.3360380     (Bohr^2)                                    |
 | The following shells are used:   1                                         |
 +----------------------------------------------------------------------------+
 |                        Shell   # Nearest-Neighbours                        |
 |                        -----   --------------------                        |
 |                          1               8                                 |
 +----------------------------------------------------------------------------+
 | Completeness relation is fully satisfied [Eq. (B1), PRB 56, 12847 (1997)]  |
 +----------------------------------------------------------------------------+
 |                 b_k Vectors (Bohr^-1) and Weights (Bohr^2)                 |
 |                 ------------------------------------------                 |
 |            No.         b_k(x)      b_k(y)      b_k(z)        w_b           |
 |            ---        --------------------------------     --------        |
 |             1        -0.153054    0.153054   -0.153054     5.336038        |
 |             2         0.153054    0.153054    0.153054     5.336038        |
 |             3        -0.153054   -0.153054    0.153054     5.336038        |
 |             4        -0.153054    0.153054    0.153054     5.336038        |
 |             5         0.153054   -0.153054    0.153054     5.336038        |
 |             6        -0.153054   -0.153054   -0.153054     5.336038        |
 |             7         0.153054    0.153054   -0.153054     5.336038        |
 |             8         0.153054   -0.153054   -0.153054     5.336038        |
 +----------------------------------------------------------------------------+
 |                           b_k Directions (Bohr^-1)                         |
 |                           ------------------------                         |
 |            No.           x           y           z                         |
 |            ---        --------------------------------                     |
 |             1        -0.153054    0.153054   -0.153054                     |
 |             2         0.153054    0.153054    0.153054                     |
 |             3        -0.153054   -0.153054    0.153054                     |
 |             4        -0.153054    0.153054    0.153054                     |
 +----------------------------------------------------------------------------+
  
 Time to get kmesh              0.020 (sec)
 *============================================================================*
 |                              MEMORY ESTIMATE                               |
 |         Maximum RAM allocated during each phase of the calculation         |
 *============================================================================*
 |                            Wannierise:            0.42 Mb                  |
 |                                                                            |
 |   N.B. by setting optimisation=0 memory usage will be reduced to:          |
 |                            Wannierise:            0.29 Mb                  |
 |   However, this will result in more i/o and slow down the calculation      |
 |                          plot_wannier:            0.42 Mb                  |
 *----------------------------------------------------------------------------*
  
 Starting a new Wannier90 calculation ...


 Reading overlaps from si.mmn    :  Created on 26Jan2022 at 10:37:11

 Reading projections from si.amn :  Created on 26Jan2022 at 10:37:11  with SCDM

 Time to read overlaps          0.009 (sec)

 Writing checkpoint file si.chk... done


 *------------------------------- WANNIERISE ---------------------------------*
 +--------------------------------------------------------------------+<-- CONV
 | Iter  Delta Spread     RMS Gradient      Spread (Bohr^2)     Time  |<-- CONV
 +--------------------------------------------------------------------+<-- CONV

 ------------------------------------------------------------------------------
 Initial State
  WF centre and spread    1  (  1.282875,  1.282875,  1.282874 )     5.74350944
  WF centre and spread    2  ( -1.282875,  1.282875, -1.282875 )     5.74351121
  WF centre and spread    3  ( -1.282875, -1.282875,  1.282875 )     5.74351290
  WF centre and spread    4  (  1.282875, -1.282875, -1.282875 )     5.74350975
  Sum of centres and spreads ( -0.000000, -0.000001, -0.000000 )    22.97404330

      0     0.230E+02     0.0000000000       22.9740432953       0.00  <-- CONV
        O_D=      0.0000000 O_OD=      2.1328784 O_TOT=     22.9740433 <-- SPRD
 ------------------------------------------------------------------------------
 Cycle:      1
  WF centre and spread    1  (  1.282875,  1.282875,  1.282874 )     5.71270553
  WF centre and spread    2  ( -1.282875,  1.282875, -1.282875 )     5.71270726
  WF centre and spread    3  ( -1.282875, -1.282875,  1.282875 )     5.71270897
  WF centre and spread    4  (  1.282875, -1.282875, -1.282875 )     5.71270588
  Sum of centres and spreads ( -0.000000, -0.000001, -0.000000 )    22.85082765

      1    -0.123E+00     0.3590932140       22.8508276477       0.00  <-- CONV
        O_D=      0.0000000 O_OD=      2.0096627 O_TOT=     22.8508276 <-- SPRD
 Delta: O_D= -0.1531907E-10 O_OD= -0.1232156E+00 O_TOT= -0.1232156E+00 <-- DLTA
 ------------------------------------------------------------------------------
 Cycle:      2
  WF centre and spread    1  (  1.282875,  1.282875,  1.282874 )     5.71215742
  WF centre and spread    2  ( -1.282875,  1.282875, -1.282875 )     5.71215913
  WF centre and spread    3  ( -1.282875, -1.282875,  1.282875 )     5.71216079
  WF centre and spread    4  (  1.282875, -1.282875, -1.282875 )     5.71215778
  Sum of centres and spreads ( -0.000000, -0.000001, -0.000000 )    22.84863512

      2    -0.219E-02     0.0528791873       22.8486351231       0.00  <-- CONV
        O_D=      0.0000000 O_OD=      2.0074702 O_TOT=     22.8486351 <-- SPRD
 Delta: O_D= -0.5572391E-11 O_OD= -0.2192525E-02 O_TOT= -0.2192525E-02 <-- DLTA
 ------------------------------------------------------------------------------
 Cycle:      3
  WF centre and spread    1  (  1.282875,  1.282875,  1.282874 )     5.71215217
  WF centre and spread    2  ( -1.282875,  1.282875, -1.282875 )     5.71215387
  WF centre and spread    3  ( -1.282875, -1.282875,  1.282875 )     5.71215549
  WF centre and spread    4  (  1.282875, -1.282875, -1.282875 )     5.71215254
  Sum of centres and spreads ( -0.000000, -0.000001, -0.000000 )    22.84861407

      3    -0.211E-04     0.0058137506       22.8486140685       0.01  <-- CONV
        O_D=      0.0000000 O_OD=      2.0074491 O_TOT=     22.8486141 <-- SPRD
 Delta: O_D= -0.3273392E-11 O_OD= -0.2105463E-04 O_TOT= -0.2105463E-04 <-- DLTA
 ------------------------------------------------------------------------------
 Cycle:      4
  WF centre and spread    1  (  1.282875,  1.282875,  1.282874 )     5.71215218
  WF centre and spread    2  ( -1.282875,  1.282875, -1.282875 )     5.71215387
  WF centre and spread    3  ( -1.282875, -1.282875,  1.282875 )     5.71215545
  WF centre and spread    4  (  1.282875, -1.282875, -1.282875 )     5.71215256
  Sum of centres and spreads ( -0.000000, -0.000001, -0.000000 )    22.84861406

      4    -0.664E-08     0.0000951833       22.8486140619       0.01  <-- CONV
        O_D=      0.0000000 O_OD=      2.0074491 O_TOT=     22.8486141 <-- SPRD
 Delta: O_D=  0.1084507E-12 O_OD= -0.6640143E-08 O_TOT= -0.6640031E-08 <-- DLTA
 ------------------------------------------------------------------------------
 Cycle:      5
  WF centre and spread    1  (  1.282875,  1.282875,  1.282874 )     5.71215219
  WF centre and spread    2  ( -1.282875,  1.282875, -1.282875 )     5.71215387
  WF centre and spread    3  ( -1.282875, -1.282875,  1.282875 )     5.71215542
  WF centre and spread    4  (  1.282875, -1.282875, -1.282875 )     5.71215259
  Sum of centres and spreads ( -0.000000, -0.000001, -0.000000 )    22.84861406

      5    -0.146E-10     0.0000049799       22.8486140618       0.01  <-- CONV
        O_D=      0.0000000 O_OD=      2.0074491 O_TOT=     22.8486141 <-- SPRD
 Delta: O_D=  0.7314361E-12 O_OD= -0.1530049E-10 O_TOT= -0.1457099E-10 <-- DLTA
 ------------------------------------------------------------------------------
 Cycle:      6
  WF centre and spread    1  (  1.282875,  1.282875,  1.282874 )     5.71215219
  WF centre and spread    2  ( -1.282875,  1.282875, -1.282875 )     5.71215387
  WF centre and spread    3  ( -1.282875, -1.282875,  1.282875 )     5.71215542
  WF centre and spread    4  (  1.282875, -1.282875, -1.282875 )     5.71215259
  Sum of centres and spreads ( -0.000000, -0.000001, -0.000000 )    22.84861406

      6    -0.336E-12     0.0000032475       22.8486140618       0.01  <-- CONV
        O_D=      0.0000000 O_OD=      2.0074491 O_TOT=     22.8486141 <-- SPRD
 Delta: O_D= -0.1670968E-12 O_OD= -0.1692918E-12 O_TOT= -0.3362047E-12 <-- DLTA
 ------------------------------------------------------------------------------
 Cycle:      7
  WF centre and spread    1  (  1.282875,  1.282875,  1.282874 )     5.71215219
  WF centre and spread    2  ( -1.282875,  1.282875, -1.282875 )     5.71215387
  WF centre and spread    3  ( -1.282875, -1.282875,  1.282875 )     5.71215541
  WF centre and spread    4  (  1.282875, -1.282875, -1.282875 )     5.71215259
  Sum of centres and spreads ( -0.000000, -0.000001, -0.000000 )    22.84861406

      7    -0.368E-11     0.0000031280       22.8486140618       0.01  <-- CONV
        O_D=      0.0000000 O_OD=      2.0074491 O_TOT=     22.8486141 <-- SPRD
 Delta: O_D= -0.1898923E-11 O_OD= -0.1775779E-11 O_TOT= -0.3676050E-11 <-- DLTA
 ------------------------------------------------------------------------------
 Cycle:      8
  WF centre and spread    1  (  1.282875,  1.282875,  1.282874 )     5.71215219
  WF centre and spread    2  ( -1.282875,  1.282875, -1.282875 )     5.71215387
  WF centre and spread    3  ( -1.282875, -1.282875,  1.282875 )     5.71215540
  WF centre and spread    4  (  1.282875, -1.282875, -1.282875 )     5.71215259
  Sum of centres and spreads ( -0.000000, -0.000001, -0.000000 )    22.84861406

      8    -0.285E-13     0.0000007415       22.8486140618       0.01  <-- CONV
        O_D=      0.0000000 O_OD=      2.0074491 O_TOT=     22.8486141 <-- SPRD
 Delta: O_D= -0.2792732E-15 O_OD= -0.2894215E-13 O_TOT= -0.2854568E-13 <-- DLTA
 ------------------------------------------------------------------------------
 Cycle:      9
  WF centre and spread    1  (  1.282875,  1.282875,  1.282874 )     5.71215219
  WF centre and spread    2  ( -1.282875,  1.282875, -1.282875 )     5.71215387
  WF centre and spread    3  ( -1.282875, -1.282875,  1.282875 )     5.71215540
  WF centre and spread    4  (  1.282875, -1.282875, -1.282875 )     5.71215260
  Sum of centres and spreads ( -0.000000, -0.000001, -0.000000 )    22.84861406

      9    -0.444E-13     0.0000007205       22.8486140618       0.01  <-- CONV
        O_D=      0.0000000 O_OD=      2.0074491 O_TOT=     22.8486141 <-- SPRD
 Delta: O_D= -0.4100392E-15 O_OD= -0.4559380E-13 O_TOT= -0.4440440E-13 <-- DLTA
 ------------------------------------------------------------------------------
 Cycle:     10
  WF centre and spread    1  (  1.282875,  1.282875,  1.282874 )     5.71215220
  WF centre and spread    2  ( -1.282875,  1.282875, -1.282875 )     5.71215387
  WF centre and spread    3  ( -1.282875, -1.282875,  1.282875 )     5.71215539
  WF centre and spread    4  (  1.282875, -1.282875, -1.282875 )     5.71215260
  Sum of centres and spreads ( -0.000000, -0.000001, -0.000000 )    22.84861406

     10    -0.213E-12     0.0000006796       22.8486140618       0.02  <-- CONV
        O_D=      0.0000000 O_OD=      2.0074491 O_TOT=     22.8486141 <-- SPRD
 Delta: O_D=  0.4128029E-15 O_OD= -0.2132997E-12 O_TOT= -0.2125068E-12 <-- DLTA
 ------------------------------------------------------------------------------
 Cycle:     11
  WF centre and spread    1  (  1.282875,  1.282875,  1.282874 )     5.71215220
  WF centre and spread    2  ( -1.282875,  1.282875, -1.282875 )     5.71215387
  WF centre and spread    3  ( -1.282875, -1.282875,  1.282875 )     5.71215539
  WF centre and spread    4  (  1.282875, -1.282875, -1.282875 )     5.71215260
  Sum of centres and spreads ( -0.000000, -0.000001, -0.000000 )    22.84861406

     11    -0.285E-13     0.0000004974       22.8486140618       0.02  <-- CONV
        O_D=      0.0000000 O_OD=      2.0074491 O_TOT=     22.8486141 <-- SPRD
 Delta: O_D=  0.5094571E-15 O_OD= -0.2656335E-13 O_TOT= -0.2854568E-13 <-- DLTA
 ------------------------------------------------------------------------------
 Cycle:     12
  WF centre and spread    1  (  1.282875,  1.282875,  1.282874 )     5.71215220
  WF centre and spread    2  ( -1.282875,  1.282875, -1.282875 )     5.71215387
  WF centre and spread    3  ( -1.282875, -1.282875,  1.282875 )     5.71215539
  WF centre and spread    4  (  1.282875, -1.282875, -1.282875 )     5.71215260
  Sum of centres and spreads ( -0.000000, -0.000001, -0.000000 )    22.84861406

     12    -0.349E-13     0.0000004727       22.8486140618       0.02  <-- CONV
        O_D=      0.0000000 O_OD=      2.0074491 O_TOT=     22.8486141 <-- SPRD
 Delta: O_D=  0.7344541E-15 O_OD= -0.3568211E-13 O_TOT= -0.3488917E-13 <-- DLTA
 ------------------------------------------------------------------------------
 Cycle:     13
  WF centre and spread    1  (  1.282875,  1.282875,  1.282874 )     5.71215220
  WF centre and spread    2  ( -1.282875,  1.282875, -1.282875 )     5.71215387
  WF centre and spread    3  ( -1.282875, -1.282875,  1.282875 )     5.71215539
  WF centre and spread    4  (  1.282875, -1.282875, -1.282875 )     5.71215260
  Sum of centres and spreads ( -0.000000, -0.000001, -0.000000 )    22.84861406

     13    -0.127E-13     0.0000004454       22.8486140618       0.02  <-- CONV
        O_D=      0.0000000 O_OD=      2.0074491 O_TOT=     22.8486141 <-- SPRD
 Delta: O_D=  0.2142860E-15 O_OD= -0.1149757E-13 O_TOT= -0.1268697E-13 <-- DLTA
 ------------------------------------------------------------------------------
 Cycle:     14
  WF centre and spread    1  (  1.282875,  1.282875,  1.282874 )     5.71215220
  WF centre and spread    2  ( -1.282875,  1.282875, -1.282875 )     5.71215387
  WF centre and spread    3  ( -1.282875, -1.282875,  1.282875 )     5.71215539
  WF centre and spread    4  (  1.282875, -1.282875, -1.282875 )     5.71215261
  Sum of centres and spreads ( -0.000000, -0.000001, -0.000000 )    22.84861406

     14    -0.634E-14     0.0000004394       22.8486140618       0.02  <-- CONV
        O_D=      0.0000000 O_OD=      2.0074491 O_TOT=     22.8486141 <-- SPRD
 Delta: O_D=  0.3606767E-15 O_OD= -0.9118760E-14 O_TOT= -0.6343485E-14 <-- DLTA
 ------------------------------------------------------------------------------
 Cycle:     15
  WF centre and spread    1  (  1.282875,  1.282875,  1.282874 )     5.71215220
  WF centre and spread    2  ( -1.282875,  1.282875, -1.282875 )     5.71215387
  WF centre and spread    3  ( -1.282875, -1.282875,  1.282875 )     5.71215539
  WF centre and spread    4  (  1.282875, -1.282875, -1.282875 )     5.71215261
  Sum of centres and spreads ( -0.000000, -0.000001, -0.000000 )    22.84861406

     15    -0.190E-13     0.0000004296       22.8486140618       0.02  <-- CONV
        O_D=      0.0000000 O_OD=      2.0074491 O_TOT=     22.8486141 <-- SPRD
 Delta: O_D=  0.6672140E-15 O_OD= -0.2220220E-13 O_TOT= -0.1903046E-13 <-- DLTA
 ------------------------------------------------------------------------------
 Cycle:     16
  WF centre and spread    1  (  1.282875,  1.282875,  1.282874 )     5.71215220
  WF centre and spread    2  ( -1.282875,  1.282875, -1.282875 )     5.71215387
  WF centre and spread    3  ( -1.282875, -1.282875,  1.282875 )     5.71215538
  WF centre and spread    4  (  1.282875, -1.282875, -1.282875 )     5.71215261
  Sum of centres and spreads ( -0.000000, -0.000001, -0.000000 )    22.84861406

     16    -0.381E-13     0.0000004129       22.8486140618       0.02  <-- CONV
        O_D=      0.0000000 O_OD=      2.0074491 O_TOT=     22.8486141 <-- SPRD
 Delta: O_D=  0.8938815E-15 O_OD= -0.3647504E-13 O_TOT= -0.3806091E-13 <-- DLTA
 ------------------------------------------------------------------------------
 Cycle:     17
  WF centre and spread    1  (  1.282875,  1.282874,  1.282874 )     5.71215220
  WF centre and spread    2  ( -1.282875,  1.282875, -1.282875 )     5.71215387
  WF centre and spread    3  ( -1.282875, -1.282875,  1.282875 )     5.71215538
  WF centre and spread    4  (  1.282875, -1.282875, -1.282875 )     5.71215261
  Sum of centres and spreads ( -0.000000, -0.000001, -0.000000 )    22.84861406

     17    -0.444E-13     0.0000003926       22.8486140618       0.03  <-- CONV
        O_D=      0.0000000 O_OD=      2.0074491 O_TOT=     22.8486141 <-- SPRD
 Delta: O_D=  0.2201985E-14 O_OD= -0.4836908E-13 O_TOT= -0.4440440E-13 <-- DLTA
 ------------------------------------------------------------------------------
 Cycle:     18
  WF centre and spread    1  (  1.282875,  1.282874,  1.282874 )     5.71215220
  WF centre and spread    2  ( -1.282875,  1.282875, -1.282875 )     5.71215387
  WF centre and spread    3  ( -1.282875, -1.282875,  1.282875 )     5.71215538
  WF centre and spread    4  (  1.282875, -1.282875, -1.282875 )     5.71215261
  Sum of centres and spreads ( -0.000000, -0.000001, -0.000000 )    22.84861406

     18    -0.222E-13     0.0000003498       22.8486140618       0.03  <-- CONV
        O_D=      0.0000000 O_OD=      2.0074491 O_TOT=     22.8486141 <-- SPRD
 Delta: O_D=  0.1206797E-14 O_OD= -0.2101280E-13 O_TOT= -0.2220220E-13 <-- DLTA
 ------------------------------------------------------------------------------
 Cycle:     19
  WF centre and spread    1  (  1.282875,  1.282874,  1.282874 )     5.71215220
  WF centre and spread    2  ( -1.282875,  1.282875, -1.282875 )     5.71215387
  WF centre and spread    3  ( -1.282875, -1.282875,  1.282875 )     5.71215538
  WF centre and spread    4  (  1.282875, -1.282875, -1.282875 )     5.71215261
  Sum of centres and spreads ( -0.000000, -0.000001, -0.000000 )    22.84861406

     19    -0.159E-13     0.0000003301       22.8486140618       0.03  <-- CONV
        O_D=      0.0000000 O_OD=      2.0074491 O_TOT=     22.8486141 <-- SPRD
 Delta: O_D=  0.2482744E-15 O_OD= -0.1506578E-13 O_TOT= -0.1585871E-13 <-- DLTA
 ------------------------------------------------------------------------------
 Cycle:     20
  WF centre and spread    1  (  1.282875,  1.282874,  1.282874 )     5.71215220
  WF centre and spread    2  ( -1.282875,  1.282875, -1.282875 )     5.71215387
  WF centre and spread    3  ( -1.282875, -1.282875,  1.282875 )     5.71215538
  WF centre and spread    4  (  1.282875, -1.282875, -1.282875 )     5.71215261
  Sum of centres and spreads ( -0.000000, -0.000001, -0.000000 )    22.84861406

     20    -0.127E-13     0.0000003269       22.8486140618       0.03  <-- CONV
        O_D=      0.0000000 O_OD=      2.0074491 O_TOT=     22.8486141 <-- SPRD
 Delta: O_D=  0.2454454E-15 O_OD= -0.1466931E-13 O_TOT= -0.1268697E-13 <-- DLTA
 ------------------------------------------------------------------------------
 Cycle:     21
  WF centre and spread    1  (  1.282875,  1.282874,  1.282874 )     5.71215220
  WF centre and spread    2  ( -1.282875,  1.282875, -1.282875 )     5.71215387
  WF centre and spread    3  ( -1.282875, -1.282875,  1.282875 )     5.71215537
  WF centre and spread    4  (  1.282875, -1.282875, -1.282875 )     5.71215261
  Sum of centres and spreads ( -0.000000, -0.000001, -0.000000 )    22.84861406

     21     0.000E+00     0.0000003238       22.8486140618       0.03  <-- CONV
        O_D=      0.0000000 O_OD=      2.0074491 O_TOT=     22.8486141 <-- SPRD
 Delta: O_D=  0.2927954E-15 O_OD=  0.1189404E-14 O_TOT=  0.0000000E+00 <-- DLTA
 ------------------------------------------------------------------------------
 Cycle:     22
  WF centre and spread    1  (  1.282875,  1.282874,  1.282874 )     5.71215220
  WF centre and spread    2  ( -1.282875,  1.282875, -1.282875 )     5.71215387
  WF centre and spread    3  ( -1.282875, -1.282875,  1.282875 )     5.71215537
  WF centre and spread    4  (  1.282875, -1.282875, -1.282875 )     5.71215262
  Sum of centres and spreads ( -0.000000, -0.000001, -0.000000 )    22.84861406

     22    -0.190E-13     0.0000003201       22.8486140618       0.03  <-- CONV
        O_D=      0.0000000 O_OD=      2.0074491 O_TOT=     22.8486141 <-- SPRD
 Delta: O_D=  0.1098612E-14 O_OD= -0.2140926E-13 O_TOT= -0.1903046E-13 <-- DLTA
 ------------------------------------------------------------------------------
 Cycle:     23
  WF centre and spread    1  (  1.282875,  1.282874,  1.282874 )     5.71215220
  WF centre and spread    2  ( -1.282875,  1.282875, -1.282875 )     5.71215387
  WF centre and spread    3  ( -1.282875, -1.282875,  1.282875 )     5.71215537
  WF centre and spread    4  (  1.282875, -1.282875, -1.282875 )     5.71215262
  Sum of centres and spreads ( -0.000000, -0.000001, -0.000000 )    22.84861406

     23    -0.190E-13     0.0000003068       22.8486140618       0.03  <-- CONV
        O_D=      0.0000000 O_OD=      2.0074491 O_TOT=     22.8486141 <-- SPRD
 Delta: O_D=  0.1123837E-14 O_OD= -0.1982339E-13 O_TOT= -0.1903046E-13 <-- DLTA
 ------------------------------------------------------------------------------
 Cycle:     24
  WF centre and spread    1  (  1.282875,  1.282874,  1.282874 )     5.71215221
  WF centre and spread    2  ( -1.282875,  1.282875, -1.282875 )     5.71215387
  WF centre and spread    3  ( -1.282875, -1.282875,  1.282875 )     5.71215537
  WF centre and spread    4  (  1.282875, -1.282875, -1.282875 )     5.71215262
  Sum of centres and spreads ( -0.000000, -0.000001, -0.000000 )    22.84861406

     24    -0.222E-13     0.0000002939       22.8486140618       0.04  <-- CONV
        O_D=      0.0000000 O_OD=      2.0074491 O_TOT=     22.8486141 <-- SPRD
 Delta: O_D=  0.1725298E-14 O_OD= -0.2259867E-13 O_TOT= -0.2220220E-13 <-- DLTA
 ------------------------------------------------------------------------------
 Cycle:     25
  WF centre and spread    1  (  1.282875,  1.282874,  1.282874 )     5.71215221
  WF centre and spread    2  ( -1.282875,  1.282875, -1.282875 )     5.71215387
  WF centre and spread    3  ( -1.282875, -1.282875,  1.282875 )     5.71215536
  WF centre and spread    4  (  1.282875, -1.282875, -1.282875 )     5.71215262
  Sum of centres and spreads ( -0.000000, -0.000001, -0.000000 )    22.84861406

     25    -0.952E-14     0.0000002755       22.8486140618       0.04  <-- CONV
        O_D=      0.0000000 O_OD=      2.0074491 O_TOT=     22.8486141 <-- SPRD
 Delta: O_D=  0.2260164E-15 O_OD= -0.8325825E-14 O_TOT= -0.9515228E-14 <-- DLTA
 ------------------------------------------------------------------------------
 Cycle:     26
  WF centre and spread    1  (  1.282875,  1.282874,  1.282874 )     5.71215221
  WF centre and spread    2  ( -1.282875,  1.282875, -1.282875 )     5.71215387
  WF centre and spread    3  ( -1.282875, -1.282875,  1.282875 )     5.71215536
  WF centre and spread    4  (  1.282875, -1.282875, -1.282875 )     5.71215262
  Sum of centres and spreads ( -0.000000, -0.000001, -0.000000 )    22.84861406

     26     0.634E-14     0.0000002736       22.8486140618       0.04  <-- CONV
        O_D=      0.0000000 O_OD=      2.0074491 O_TOT=     22.8486141 <-- SPRD
 Delta: O_D=  0.1484434E-15 O_OD=  0.2378807E-14 O_TOT=  0.6343485E-14 <-- DLTA
 ------------------------------------------------------------------------------
 Cycle:     27
  WF centre and spread    1  (  1.282875,  1.282874,  1.282874 )     5.71215221
  WF centre and spread    2  ( -1.282875,  1.282875, -1.282875 )     5.71215387
  WF centre and spread    3  ( -1.282875, -1.282875,  1.282875 )     5.71215536
  WF centre and spread    4  (  1.282875, -1.282875, -1.282875 )     5.71215262
  Sum of centres and spreads ( -0.000000, -0.000001, -0.000000 )    22.84861406

     27    -0.127E-13     0.0000002723       22.8486140618       0.04  <-- CONV
        O_D=      0.0000000 O_OD=      2.0074491 O_TOT=     22.8486141 <-- SPRD
 Delta: O_D=  0.6684945E-15 O_OD= -0.1268697E-13 O_TOT= -0.1268697E-13 <-- DLTA
 ------------------------------------------------------------------------------
 Cycle:     28
  WF centre and spread    1  (  1.282875,  1.282874,  1.282874 )     5.71215221
  WF centre and spread    2  ( -1.282875,  1.282875, -1.282875 )     5.71215387
  WF centre and spread    3  ( -1.282875, -1.282875,  1.282875 )     5.71215536
  WF centre and spread    4  (  1.282875, -1.282875, -1.282875 )     5.71215262
  Sum of centres and spreads ( -0.000000, -0.000001, -0.000000 )    22.84861406

     28    -0.190E-13     0.0000002666       22.8486140618       0.04  <-- CONV
        O_D=      0.0000000 O_OD=      2.0074491 O_TOT=     22.8486141 <-- SPRD
 Delta: O_D=  0.8634378E-15 O_OD= -0.1903046E-13 O_TOT= -0.1903046E-13 <-- DLTA
 ------------------------------------------------------------------------------
 Cycle:     29
  WF centre and spread    1  (  1.282875,  1.282874,  1.282874 )     5.71215221
  WF centre and spread    2  ( -1.282875,  1.282875, -1.282875 )     5.71215387
  WF centre and spread    3  ( -1.282875, -1.282875,  1.282875 )     5.71215536
  WF centre and spread    4  (  1.282875, -1.282875, -1.282875 )     5.71215262
  Sum of centres and spreads ( -0.000000, -0.000001, -0.000000 )    22.84861406

     29     0.000E+00     0.0000002595       22.8486140618       0.04  <-- CONV
        O_D=      0.0000000 O_OD=      2.0074491 O_TOT=     22.8486141 <-- SPRD
 Delta: O_D=  0.5182711E-15 O_OD=  0.1189404E-14 O_TOT=  0.0000000E+00 <-- DLTA
 ------------------------------------------------------------------------------
 Cycle:     30
  WF centre and spread    1  (  1.282875,  1.282874,  1.282874 )     5.71215221
  WF centre and spread    2  ( -1.282875,  1.282875, -1.282875 )     5.71215387
  WF centre and spread    3  ( -1.282875, -1.282875,  1.282875 )     5.71215536
  WF centre and spread    4  (  1.282875, -1.282875, -1.282875 )     5.71215263
  Sum of centres and spreads ( -0.000000, -0.000001, -0.000000 )    22.84861406

     30    -0.127E-13     0.0000002554       22.8486140618       0.04  <-- CONV
        O_D=      0.0000000 O_OD=      2.0074491 O_TOT=     22.8486141 <-- SPRD
 Delta: O_D=  0.1220923E-14 O_OD= -0.1744459E-13 O_TOT= -0.1268697E-13 <-- DLTA
 ------------------------------------------------------------------------------
 Cycle:     31
  WF centre and spread    1  (  1.282875,  1.282874,  1.282874 )     5.71215221
  WF centre and spread    2  ( -1.282875,  1.282875, -1.282875 )     5.71215387
  WF centre and spread    3  ( -1.282875, -1.282875,  1.282875 )     5.71215536
  WF centre and spread    4  (  1.282875, -1.282875, -1.282875 )     5.71215263
  Sum of centres and spreads ( -0.000000, -0.000001, -0.000000 )    22.84861406

     31    -0.952E-14     0.0000002460       22.8486140618       0.05  <-- CONV
        O_D=      0.0000000 O_OD=      2.0074491 O_TOT=     22.8486141 <-- SPRD
 Delta: O_D=  0.2086695E-15 O_OD= -0.8325825E-14 O_TOT= -0.9515228E-14 <-- DLTA
 ------------------------------------------------------------------------------
 Cycle:     32
  WF centre and spread    1  (  1.282875,  1.282874,  1.282874 )     5.71215221
  WF centre and spread    2  ( -1.282875,  1.282875, -1.282875 )     5.71215387
  WF centre and spread    3  ( -1.282875, -1.282875,  1.282875 )     5.71215536
  WF centre and spread    4  (  1.282875, -1.282875, -1.282875 )     5.71215263
  Sum of centres and spreads ( -0.000000, -0.000001, -0.000000 )    22.84861406

     32    -0.634E-14     0.0000002446       22.8486140618       0.05  <-- CONV
        O_D=      0.0000000 O_OD=      2.0074491 O_TOT=     22.8486141 <-- SPRD
 Delta: O_D=  0.1265762E-15 O_OD= -0.7929357E-14 O_TOT= -0.6343485E-14 <-- DLTA
 ------------------------------------------------------------------------------
 Cycle:     33
  WF centre and spread    1  (  1.282875,  1.282874,  1.282874 )     5.71215221
  WF centre and spread    2  ( -1.282875,  1.282875, -1.282875 )     5.71215387
  WF centre and spread    3  ( -1.282875, -1.282875,  1.282875 )     5.71215535
  WF centre and spread    4  (  1.282875, -1.282875, -1.282875 )     5.71215263
  Sum of centres and spreads ( -0.000000, -0.000001, -0.000000 )    22.84861406

     33    -0.634E-14     0.0000002438       22.8486140618       0.05  <-- CONV
        O_D=      0.0000000 O_OD=      2.0074491 O_TOT=     22.8486141 <-- SPRD
 Delta: O_D=  0.6187342E-15 O_OD= -0.4757614E-14 O_TOT= -0.6343485E-14 <-- DLTA
 ------------------------------------------------------------------------------
 Cycle:     34
  WF centre and spread    1  (  1.282875,  1.282874,  1.282874 )     5.71215221
  WF centre and spread    2  ( -1.282875,  1.282875, -1.282875 )     5.71215387
  WF centre and spread    3  ( -1.282875, -1.282875,  1.282875 )     5.71215535
  WF centre and spread    4  (  1.282875, -1.282875, -1.282875 )     5.71215263
  Sum of centres and spreads ( -0.000000, -0.000001, -0.000000 )    22.84861406

     34    -0.127E-13     0.0000002396       22.8486140618       0.05  <-- CONV
        O_D=      0.0000000 O_OD=      2.0074491 O_TOT=     22.8486141 <-- SPRD
 Delta: O_D=  0.8033339E-15 O_OD= -0.1308344E-13 O_TOT= -0.1268697E-13 <-- DLTA
 ------------------------------------------------------------------------------
 Cycle:     35
  WF centre and spread    1  (  1.282875,  1.282874,  1.282874 )     5.71215221
  WF centre and spread    2  ( -1.282875,  1.282875, -1.282875 )     5.71215387
  WF centre and spread    3  ( -1.282875, -1.282875,  1.282875 )     5.71215535
  WF centre and spread    4  (  1.282875, -1.282875, -1.282875 )     5.71215263
  Sum of centres and spreads ( -0.000000, -0.000001, -0.000000 )    22.84861406

     35    -0.317E-14     0.0000002344       22.8486140618       0.05  <-- CONV
        O_D=      0.0000000 O_OD=      2.0074491 O_TOT=     22.8486141 <-- SPRD
 Delta: O_D=  0.4851556E-15 O_OD= -0.5154082E-14 O_TOT= -0.3171743E-14 <-- DLTA
 ------------------------------------------------------------------------------
 Cycle:     36
  WF centre and spread    1  (  1.282875,  1.282874,  1.282874 )     5.71215221
  WF centre and spread    2  ( -1.282875,  1.282875, -1.282875 )     5.71215387
  WF centre and spread    3  ( -1.282875, -1.282875,  1.282875 )     5.71215535
  WF centre and spread    4  (  1.282875, -1.282875, -1.282875 )     5.71215263
  Sum of centres and spreads ( -0.000000, -0.000001, -0.000000 )    22.84861406

     36    -0.127E-13     0.0000002313       22.8486140618       0.05  <-- CONV
        O_D=      0.0000000 O_OD=      2.0074491 O_TOT=     22.8486141 <-- SPRD
 Delta: O_D=  0.1123895E-14 O_OD= -0.1585871E-13 O_TOT= -0.1268697E-13 <-- DLTA
 ------------------------------------------------------------------------------
 Cycle:     37
  WF centre and spread    1  (  1.282875,  1.282874,  1.282874 )     5.71215221
  WF centre and spread    2  ( -1.282875,  1.282875, -1.282875 )     5.71215387
  WF centre and spread    3  ( -1.282875, -1.282875,  1.282875 )     5.71215535
  WF centre and spread    4  (  1.282875, -1.282875, -1.282875 )     5.71215263
  Sum of centres and spreads ( -0.000000, -0.000001, -0.000000 )    22.84861406

     37    -0.634E-14     0.0000002243       22.8486140618       0.05  <-- CONV
        O_D=      0.0000000 O_OD=      2.0074491 O_TOT=     22.8486141 <-- SPRD
 Delta: O_D=  0.1929399E-15 O_OD= -0.3568211E-14 O_TOT= -0.6343485E-14 <-- DLTA
 ------------------------------------------------------------------------------
 Cycle:     38
  WF centre and spread    1  (  1.282875,  1.282874,  1.282874 )     5.71215221
  WF centre and spread    2  ( -1.282875,  1.282875, -1.282875 )     5.71215387
  WF centre and spread    3  ( -1.282875, -1.282875,  1.282875 )     5.71215535
  WF centre and spread    4  (  1.282875, -1.282875, -1.282875 )     5.71215263
  Sum of centres and spreads ( -0.000000, -0.000001, -0.000000 )    22.84861406

     38    -0.317E-14     0.0000002232       22.8486140618       0.05  <-- CONV
        O_D=      0.0000000 O_OD=      2.0074491 O_TOT=     22.8486141 <-- SPRD
 Delta: O_D=  0.3832847E-15 O_OD= -0.3568211E-14 O_TOT= -0.3171743E-14 <-- DLTA
 ------------------------------------------------------------------------------
 Cycle:     39
  WF centre and spread    1  (  1.282875,  1.282874,  1.282874 )     5.71215221
  WF centre and spread    2  ( -1.282875,  1.282875, -1.282875 )     5.71215387
  WF centre and spread    3  ( -1.282875, -1.282875,  1.282875 )     5.71215535
  WF centre and spread    4  (  1.282875, -1.282875, -1.282875 )     5.71215263
  Sum of centres and spreads ( -0.000000, -0.000001, -0.000000 )    22.84861406

     39     0.634E-14     0.0000002210       22.8486140618       0.06  <-- CONV
        O_D=      0.0000000 O_OD=      2.0074491 O_TOT=     22.8486141 <-- SPRD
 Delta: O_D=  0.7847194E-16 O_OD=  0.6343485E-14 O_TOT=  0.6343485E-14 <-- DLTA
 ------------------------------------------------------------------------------
 Cycle:     40
  WF centre and spread    1  (  1.282875,  1.282874,  1.282874 )     5.71215221
  WF centre and spread    2  ( -1.282875,  1.282875, -1.282875 )     5.71215387
  WF centre and spread    3  ( -1.282875, -1.282875,  1.282875 )     5.71215535
  WF centre and spread    4  (  1.282875, -1.282875, -1.282875 )     5.71215263
  Sum of centres and spreads ( -0.000000, -0.000001, -0.000000 )    22.84861406

     40    -0.634E-14     0.0000002206       22.8486140618       0.06  <-- CONV
        O_D=      0.0000000 O_OD=      2.0074491 O_TOT=     22.8486141 <-- SPRD
 Delta: O_D=  0.7547328E-15 O_OD= -0.7532889E-14 O_TOT= -0.6343485E-14 <-- DLTA
 ------------------------------------------------------------------------------
 Cycle:     41
  WF centre and spread    1  (  1.282875,  1.282874,  1.282874 )     5.71215221
  WF centre and spread    2  ( -1.282875,  1.282875, -1.282875 )     5.71215387
  WF centre and spread    3  ( -1.282875, -1.282875,  1.282875 )     5.71215534
  WF centre and spread    4  (  1.282875, -1.282875, -1.282875 )     5.71215263
  Sum of centres and spreads ( -0.000000, -0.000001, -0.000000 )    22.84861406

     41    -0.127E-13     0.0000002164       22.8486140618       0.06  <-- CONV
        O_D=      0.0000000 O_OD=      2.0074491 O_TOT=     22.8486141 <-- SPRD
 Delta: O_D=  0.9143439E-15 O_OD= -0.1189404E-13 O_TOT= -0.1268697E-13 <-- DLTA
 ------------------------------------------------------------------------------
 Cycle:     42
  WF centre and spread    1  (  1.282875,  1.282874,  1.282874 )     5.71215221
  WF centre and spread    2  ( -1.282875,  1.282875, -1.282875 )     5.71215387
  WF centre and spread    3  ( -1.282875, -1.282875,  1.282875 )     5.71215534
  WF centre and spread    4  (  1.282875, -1.282875, -1.282875 )     5.71215264
  Sum of centres and spreads ( -0.000000, -0.000001, -0.000000 )    22.84861406

     42    -0.127E-13     0.0000002114       22.8486140618       0.06  <-- CONV
        O_D=      0.0000000 O_OD=      2.0074491 O_TOT=     22.8486141 <-- SPRD
 Delta: O_D=  0.7483119E-15 O_OD= -0.1585871E-13 O_TOT= -0.1268697E-13 <-- DLTA
 ------------------------------------------------------------------------------
 Cycle:     43
  WF centre and spread    1  (  1.282875,  1.282874,  1.282874 )     5.71215221
  WF centre and spread    2  ( -1.282875,  1.282875, -1.282875 )     5.71215387
  WF centre and spread    3  ( -1.282875, -1.282875,  1.282875 )     5.71215534
  WF centre and spread    4  (  1.282875, -1.282875, -1.282875 )     5.71215264
  Sum of centres and spreads ( -0.000000, -0.000001, -0.000000 )    22.84861406

     43     0.317E-14     0.0000002074       22.8486140618       0.06  <-- CONV
        O_D=      0.0000000 O_OD=      2.0074491 O_TOT=     22.8486141 <-- SPRD
 Delta: O_D=  0.1788561E-15 O_OD=  0.2775275E-14 O_TOT=  0.3171743E-14 <-- DLTA
 ------------------------------------------------------------------------------
 Cycle:     44
  WF centre and spread    1  (  1.282875,  1.282874,  1.282874 )     5.71215221
  WF centre and spread    2  ( -1.282875,  1.282875, -1.282875 )     5.71215387
  WF centre and spread    3  ( -1.282875, -1.282875,  1.282875 )     5.71215534
  WF centre and spread    4  (  1.282875, -1.282875, -1.282875 )     5.71215264
  Sum of centres and spreads ( -0.000000, -0.000001, -0.000000 )    22.84861406

     44     0.634E-14     0.0000002064       22.8486140618       0.06  <-- CONV
        O_D=      0.0000000 O_OD=      2.0074491 O_TOT=     22.8486141 <-- SPRD
 Delta: O_D=  0.9393178E-16 O_OD=  0.5154082E-14 O_TOT=  0.6343485E-14 <-- DLTA
 ------------------------------------------------------------------------------
 Cycle:     45
  WF centre and spread    1  (  1.282875,  1.282874,  1.282874 )     5.71215221
  WF centre and spread    2  ( -1.282875,  1.282875, -1.282875 )     5.71215387
  WF centre and spread    3  ( -1.282875, -1.282875,  1.282875 )     5.71215534
  WF centre and spread    4  (  1.282875, -1.282875, -1.282875 )     5.71215264
  Sum of centres and spreads ( -0.000000, -0.000001, -0.000000 )    22.84861406

     45    -0.159E-13     0.0000002060       22.8486140618       0.06  <-- CONV
        O_D=      0.0000000 O_OD=      2.0074491 O_TOT=     22.8486141 <-- SPRD
 Delta: O_D=  0.5317117E-15 O_OD= -0.1427284E-13 O_TOT= -0.1585871E-13 <-- DLTA
 ------------------------------------------------------------------------------
 Cycle:     46
  WF centre and spread    1  (  1.282875,  1.282874,  1.282874 )     5.71215221
  WF centre and spread    2  ( -1.282875,  1.282875, -1.282875 )     5.71215387
  WF centre and spread    3  ( -1.282875, -1.282875,  1.282875 )     5.71215534
  WF centre and spread    4  (  1.282875, -1.282875, -1.282875 )     5.71215264
  Sum of centres and spreads ( -0.000000, -0.000001, -0.000000 )    22.84861406

     46     0.634E-14     0.0000002033       22.8486140618       0.07  <-- CONV
        O_D=      0.0000000 O_OD=      2.0074491 O_TOT=     22.8486141 <-- SPRD
 Delta: O_D=  0.1797592E-15 O_OD=  0.4757614E-14 O_TOT=  0.6343485E-14 <-- DLTA
 ------------------------------------------------------------------------------
 Cycle:     47
  WF centre and spread    1  (  1.282875,  1.282874,  1.282874 )     5.71215222
  WF centre and spread    2  ( -1.282875,  1.282875, -1.282875 )     5.71215387
  WF centre and spread    3  ( -1.282875, -1.282875,  1.282875 )     5.71215534
  WF centre and spread    4  (  1.282875, -1.282875, -1.282875 )     5.71215264
  Sum of centres and spreads ( -0.000000, -0.000001, -0.000000 )    22.84861406

     47    -0.127E-13     0.0000002023       22.8486140618       0.07  <-- CONV
        O_D=      0.0000000 O_OD=      2.0074491 O_TOT=     22.8486141 <-- SPRD
 Delta: O_D=  0.8628564E-15 O_OD= -0.1189404E-13 O_TOT= -0.1268697E-13 <-- DLTA
 ------------------------------------------------------------------------------
 Cycle:     48
  WF centre and spread    1  (  1.282875,  1.282874,  1.282874 )     5.71215222
  WF centre and spread    2  ( -1.282875,  1.282875, -1.282875 )     5.71215387
  WF centre and spread    3  ( -1.282875, -1.282875,  1.282875 )     5.71215533
  WF centre and spread    4  (  1.282875, -1.282875, -1.282875 )     5.71215264
  Sum of centres and spreads ( -0.000000, -0.000001, -0.000000 )    22.84861406

     48    -0.952E-14     0.0000001980       22.8486140618       0.07  <-- CONV
        O_D=      0.0000000 O_OD=      2.0074491 O_TOT=     22.8486141 <-- SPRD
 Delta: O_D=  0.9991153E-15 O_OD= -0.1110110E-13 O_TOT= -0.9515228E-14 <-- DLTA
 ------------------------------------------------------------------------------
 Cycle:     49
  WF centre and spread    1  (  1.282875,  1.282874,  1.282874 )     5.71215222
  WF centre and spread    2  ( -1.282875,  1.282875, -1.282875 )     5.71215387
  WF centre and spread    3  ( -1.282875, -1.282875,  1.282875 )     5.71215533
  WF centre and spread    4  (  1.282875, -1.282875, -1.282875 )     5.71215264
  Sum of centres and spreads ( -0.000000, -0.000001, -0.000000 )    22.84861406

     49     0.317E-14     0.0000001931       22.8486140618       0.07  <-- CONV
        O_D=      0.0000000 O_OD=      2.0074491 O_TOT=     22.8486141 <-- SPRD
 Delta: O_D=  0.1660446E-15 O_OD=  0.1189404E-14 O_TOT=  0.3171743E-14 <-- DLTA
 ------------------------------------------------------------------------------
 Cycle:     50
  WF centre and spread    1  (  1.282875,  1.282874,  1.282874 )     5.71215222
  WF centre and spread    2  ( -1.282875,  1.282875, -1.282875 )     5.71215387
  WF centre and spread    3  ( -1.282875, -1.282875,  1.282875 )     5.71215533
  WF centre and spread    4  (  1.282875, -1.282875, -1.282875 )     5.71215264
  Sum of centres and spreads ( -0.000000, -0.000001, -0.000000 )    22.84861406

     50     0.000E+00     0.0000001923       22.8486140618       0.07  <-- CONV
        O_D=      0.0000000 O_OD=      2.0074491 O_TOT=     22.8486141 <-- SPRD
 Delta: O_D=  0.8139329E-16 O_OD=  0.1189404E-14 O_TOT=  0.0000000E+00 <-- DLTA
 ------------------------------------------------------------------------------
 Cycle:     51
  WF centre and spread    1  (  1.282875,  1.282874,  1.282874 )     5.71215222
  WF centre and spread    2  ( -1.282875,  1.282875, -1.282875 )     5.71215387
  WF centre and spread    3  ( -1.282875, -1.282875,  1.282875 )     5.71215533
  WF centre and spread    4  (  1.282875, -1.282875, -1.282875 )     5.71215264
  Sum of centres and spreads ( -0.000000, -0.000001, -0.000000 )    22.84861406

     51    -0.634E-14     0.0000001919       22.8486140618       0.07  <-- CONV
        O_D=      0.0000000 O_OD=      2.0074491 O_TOT=     22.8486141 <-- SPRD
 Delta: O_D=  0.4939501E-15 O_OD= -0.5947018E-14 O_TOT= -0.6343485E-14 <-- DLTA
 ------------------------------------------------------------------------------
 Cycle:     52
  WF centre and spread    1  (  1.282875,  1.282874,  1.282874 )     5.71215222
  WF centre and spread    2  ( -1.282875,  1.282875, -1.282875 )     5.71215387
  WF centre and spread    3  ( -1.282875, -1.282875,  1.282875 )     5.71215533
  WF centre and spread    4  (  1.282875, -1.282875, -1.282875 )     5.71215264
  Sum of centres and spreads ( -0.000000, -0.000001, -0.000000 )    22.84861406

     52    -0.952E-14     0.0000001896       22.8486140618       0.07  <-- CONV
        O_D=      0.0000000 O_OD=      2.0074491 O_TOT=     22.8486141 <-- SPRD
 Delta: O_D=  0.6454554E-15 O_OD= -0.9515228E-14 O_TOT= -0.9515228E-14 <-- DLTA
 ------------------------------------------------------------------------------
 Cycle:     53
  WF centre and spread    1  (  1.282875,  1.282874,  1.282874 )     5.71215222
  WF centre and spread    2  ( -1.282875,  1.282875, -1.282875 )     5.71215387
  WF centre and spread    3  ( -1.282875, -1.282875,  1.282875 )     5.71215533
  WF centre and spread    4  (  1.282875, -1.282875, -1.282875 )     5.71215264
  Sum of centres and spreads ( -0.000000, -0.000001, -0.000000 )    22.84861406

     53    -0.634E-14     0.0000001865       22.8486140618       0.08  <-- CONV
        O_D=      0.0000000 O_OD=      2.0074491 O_TOT=     22.8486141 <-- SPRD
 Delta: O_D=  0.7859685E-15 O_OD= -0.8325825E-14 O_TOT= -0.6343485E-14 <-- DLTA
 ------------------------------------------------------------------------------
 Cycle:     54
  WF centre and spread    1  (  1.282875,  1.282874,  1.282874 )     5.71215222
  WF centre and spread    2  ( -1.282875,  1.282875, -1.282875 )     5.71215387
  WF centre and spread    3  ( -1.282875, -1.282875,  1.282875 )     5.71215533
  WF centre and spread    4  (  1.282875, -1.282875, -1.282875 )     5.71215265
  Sum of centres and spreads ( -0.000000, -0.000001, -0.000000 )    22.84861406

     54    -0.634E-14     0.0000001828       22.8486140618       0.08  <-- CONV
        O_D=      0.0000000 O_OD=      2.0074491 O_TOT=     22.8486141 <-- SPRD
 Delta: O_D=  0.9133796E-15 O_OD= -0.5947018E-14 O_TOT= -0.6343485E-14 <-- DLTA
 ------------------------------------------------------------------------------
 Cycle:     55
  WF centre and spread    1  (  1.282875,  1.282874,  1.282874 )     5.71215222
  WF centre and spread    2  ( -1.282875,  1.282875, -1.282875 )     5.71215387
  WF centre and spread    3  ( -1.282875, -1.282875,  1.282875 )     5.71215533
  WF centre and spread    4  (  1.282875, -1.282875, -1.282875 )     5.71215265
  Sum of centres and spreads ( -0.000000, -0.000001, -0.000000 )    22.84861406

     55     0.317E-14     0.0000001786       22.8486140618       0.08  <-- CONV
        O_D=      0.0000000 O_OD=      2.0074491 O_TOT=     22.8486141 <-- SPRD
 Delta: O_D=  0.1524002E-15 O_OD=  0.1189404E-14 O_TOT=  0.3171743E-14 <-- DLTA
 ------------------------------------------------------------------------------
 Cycle:     56
  WF centre and spread    1  (  1.282875,  1.282874,  1.282874 )     5.71215222
  WF centre and spread    2  ( -1.282875,  1.282875, -1.282875 )     5.71215387
  WF centre and spread    3  ( -1.282875, -1.282875,  1.282875 )     5.71215533
  WF centre and spread    4  (  1.282875, -1.282875, -1.282875 )     5.71215265
  Sum of centres and spreads ( -0.000000, -0.000001, -0.000000 )    22.84861406

     56    -0.159E-13     0.0000001779       22.8486140618       0.08  <-- CONV
        O_D=      0.0000000 O_OD=      2.0074491 O_TOT=     22.8486141 <-- SPRD
 Delta: O_D=  0.3030623E-15 O_OD= -0.1744459E-13 O_TOT= -0.1585871E-13 <-- DLTA
 ------------------------------------------------------------------------------
 Cycle:     57
  WF centre and spread    1  (  1.282875,  1.282874,  1.282874 )     5.71215222
  WF centre and spread    2  ( -1.282875,  1.282875, -1.282875 )     5.71215387
  WF centre and spread    3  ( -1.282875, -1.282875,  1.282875 )     5.71215533
  WF centre and spread    4  (  1.282875, -1.282875, -1.282875 )     5.71215265
  Sum of centres and spreads ( -0.000000, -0.000001, -0.000000 )    22.84861406

     57     0.159E-13     0.0000001765       22.8486140618       0.08  <-- CONV
        O_D=      0.0000000 O_OD=      2.0074491 O_TOT=     22.8486141 <-- SPRD
 Delta: O_D=  0.6502976E-16 O_OD=  0.1625518E-13 O_TOT=  0.1585871E-13 <-- DLTA
 ------------------------------------------------------------------------------
 Cycle:     58
  WF centre and spread    1  (  1.282875,  1.282874,  1.282874 )     5.71215222
  WF centre and spread    2  ( -1.282875,  1.282875, -1.282875 )     5.71215387
  WF centre and spread    3  ( -1.282875, -1.282875,  1.282875 )     5.71215532
  WF centre and spread    4  (  1.282875, -1.282875, -1.282875 )     5.71215265
  Sum of centres and spreads ( -0.000000, -0.000001, -0.000000 )    22.84861406

     58    -0.317E-14     0.0000001762       22.8486140618       0.08  <-- CONV
        O_D=      0.0000000 O_OD=      2.0074491 O_TOT=     22.8486141 <-- SPRD
 Delta: O_D=  0.5979843E-15 O_OD= -0.3568211E-14 O_TOT= -0.3171743E-14 <-- DLTA
 ------------------------------------------------------------------------------
 Cycle:     59
  WF centre and spread    1  (  1.282875,  1.282874,  1.282874 )     5.71215222
  WF centre and spread    2  ( -1.282875,  1.282875, -1.282875 )     5.71215387
  WF centre and spread    3  ( -1.282875, -1.282875,  1.282875 )     5.71215532
  WF centre and spread    4  (  1.282875, -1.282875, -1.282875 )     5.71215265
  Sum of centres and spreads ( -0.000000, -0.000001, -0.000000 )    22.84861406

     59    -0.159E-13     0.0000001734       22.8486140618       0.08  <-- CONV
        O_D=      0.0000000 O_OD=      2.0074491 O_TOT=     22.8486141 <-- SPRD
 Delta: O_D=  0.7282031E-15 O_OD= -0.1466931E-13 O_TOT= -0.1585871E-13 <-- DLTA
 ------------------------------------------------------------------------------
 Cycle:     60
  WF centre and spread    1  (  1.282875,  1.282874,  1.282874 )     5.71215222
  WF centre and spread    2  ( -1.282875,  1.282875, -1.282875 )     5.71215387
  WF centre and spread    3  ( -1.282875, -1.282875,  1.282875 )     5.71215532
  WF centre and spread    4  (  1.282875, -1.282875, -1.282875 )     5.71215265
  Sum of centres and spreads ( -0.000000, -0.000001, -0.000000 )    22.84861406

     60    -0.317E-14     0.0000001701       22.8486140618       0.08  <-- CONV
        O_D=      0.0000000 O_OD=      2.0074491 O_TOT=     22.8486141 <-- SPRD
 Delta: O_D=  0.8465704E-15 O_OD= -0.5154082E-14 O_TOT= -0.3171743E-14 <-- DLTA
 ------------------------------------------------------------------------------
 Cycle:     61
  WF centre and spread    1  (  1.282875,  1.282874,  1.282874 )     5.71215222
  WF centre and spread    2  ( -1.282875,  1.282875, -1.282875 )     5.71215387
  WF centre and spread    3  ( -1.282875, -1.282875,  1.282875 )     5.71215532
  WF centre and spread    4  (  1.282875, -1.282875, -1.282875 )     5.71215265
  Sum of centres and spreads ( -0.000000, -0.000001, -0.000000 )    22.84861406

     61    -0.634E-14     0.0000001663       22.8486140618       0.09  <-- CONV
        O_D=      0.0000000 O_OD=      2.0074491 O_TOT=     22.8486141 <-- SPRD
 Delta: O_D=  0.1407279E-15 O_OD= -0.4361146E-14 O_TOT= -0.6343485E-14 <-- DLTA
 ------------------------------------------------------------------------------
 Cycle:     62
  WF centre and spread    1  (  1.282875,  1.282874,  1.282874 )     5.71215222
  WF centre and spread    2  ( -1.282875,  1.282875, -1.282875 )     5.71215387
  WF centre and spread    3  ( -1.282875, -1.282875,  1.282875 )     5.71215532
  WF centre and spread    4  (  1.282875, -1.282875, -1.282875 )     5.71215265
  Sum of centres and spreads ( -0.000000, -0.000001, -0.000000 )    22.84861406

     62    -0.952E-14     0.0000001656       22.8486140618       0.09  <-- CONV
        O_D=      0.0000000 O_OD=      2.0074491 O_TOT=     22.8486141 <-- SPRD
 Delta: O_D=  0.2798842E-15 O_OD= -0.8722293E-14 O_TOT= -0.9515228E-14 <-- DLTA
 ------------------------------------------------------------------------------
 Cycle:     63
  WF centre and spread    1  (  1.282875,  1.282874,  1.282874 )     5.71215222
  WF centre and spread    2  ( -1.282875,  1.282875, -1.282875 )     5.71215387
  WF centre and spread    3  ( -1.282875, -1.282875,  1.282875 )     5.71215532
  WF centre and spread    4  (  1.282875, -1.282875, -1.282875 )     5.71215265
  Sum of centres and spreads ( -0.000000, -0.000001, -0.000000 )    22.84861406

     63     0.317E-14     0.0000001644       22.8486140618       0.09  <-- CONV
        O_D=      0.0000000 O_OD=      2.0074491 O_TOT=     22.8486141 <-- SPRD
 Delta: O_D=  0.7190977E-16 O_OD=  0.3568211E-14 O_TOT=  0.3171743E-14 <-- DLTA
 ------------------------------------------------------------------------------
 Cycle:     64
  WF centre and spread    1  (  1.282875,  1.282874,  1.282874 )     5.71215222
  WF centre and spread    2  ( -1.282875,  1.282875, -1.282875 )     5.71215387
  WF centre and spread    3  ( -1.282875, -1.282875,  1.282875 )     5.71215532
  WF centre and spread    4  (  1.282875, -1.282875, -1.282875 )     5.71215265
  Sum of centres and spreads ( -0.000000, -0.000001, -0.000000 )    22.84861406

     64    -0.317E-14     0.0000001640       22.8486140618       0.09  <-- CONV
        O_D=      0.0000000 O_OD=      2.0074491 O_TOT=     22.8486141 <-- SPRD
 Delta: O_D=  0.5520818E-15 O_OD= -0.6739953E-14 O_TOT= -0.3171743E-14 <-- DLTA
 ------------------------------------------------------------------------------
 Cycle:     65
  WF centre and spread    1  (  1.282875,  1.282874,  1.282874 )     5.71215222
  WF centre and spread    2  ( -1.282875,  1.282875, -1.282875 )     5.71215387
  WF centre and spread    3  ( -1.282875, -1.282875,  1.282875 )     5.71215532
  WF centre and spread    4  (  1.282875, -1.282875, -1.282875 )     5.71215265
  Sum of centres and spreads ( -0.000000, -0.000001, -0.000000 )    22.84861406

     65     0.317E-14     0.0000001615       22.8486140618       0.09  <-- CONV
        O_D=      0.0000000 O_OD=      2.0074491 O_TOT=     22.8486141 <-- SPRD
 Delta: O_D=  0.2112397E-15 O_OD=  0.1585871E-14 O_TOT=  0.3171743E-14 <-- DLTA
 ------------------------------------------------------------------------------
 Cycle:     66
  WF centre and spread    1  (  1.282875,  1.282874,  1.282874 )     5.71215222
  WF centre and spread    2  ( -1.282875,  1.282875, -1.282875 )     5.71215387
  WF centre and spread    3  ( -1.282875, -1.282875,  1.282875 )     5.71215532
  WF centre and spread    4  (  1.282875, -1.282875, -1.282875 )     5.71215265
  Sum of centres and spreads ( -0.000000, -0.000001, -0.000000 )    22.84861406

     66    -0.952E-14     0.0000001606       22.8486140618       0.09  <-- CONV
        O_D=      0.0000000 O_OD=      2.0074491 O_TOT=     22.8486141 <-- SPRD
 Delta: O_D=  0.8007617E-15 O_OD= -0.9515228E-14 O_TOT= -0.9515228E-14 <-- DLTA
 ------------------------------------------------------------------------------
 Cycle:     67
  WF centre and spread    1  (  1.282875,  1.282874,  1.282874 )     5.71215222
  WF centre and spread    2  ( -1.282875,  1.282875, -1.282875 )     5.71215387
  WF centre and spread    3  ( -1.282875, -1.282875,  1.282875 )     5.71215531
  WF centre and spread    4  (  1.282875, -1.282875, -1.282875 )     5.71215265
  Sum of centres and spreads ( -0.000000, -0.000001, -0.000000 )    22.84861406

     67     0.317E-14     0.0000001570       22.8486140618       0.09  <-- CONV
        O_D=      0.0000000 O_OD=      2.0074491 O_TOT=     22.8486141 <-- SPRD
 Delta: O_D=  0.1319695E-15 O_OD=  0.3568211E-14 O_TOT=  0.3171743E-14 <-- DLTA
 ------------------------------------------------------------------------------
 Cycle:     68
  WF centre and spread    1  (  1.282875,  1.282874,  1.282874 )     5.71215222
  WF centre and spread    2  ( -1.282875,  1.282875, -1.282875 )     5.71215387
  WF centre and spread    3  ( -1.282875, -1.282875,  1.282875 )     5.71215531
  WF centre and spread    4  (  1.282875, -1.282875, -1.282875 )     5.71215265
  Sum of centres and spreads ( -0.000000, -0.000001, -0.000000 )    22.84861406

     68    -0.952E-14     0.0000001564       22.8486140618       0.09  <-- CONV
        O_D=      0.0000000 O_OD=      2.0074491 O_TOT=     22.8486141 <-- SPRD
 Delta: O_D=  0.2624785E-15 O_OD= -0.9911696E-14 O_TOT= -0.9515228E-14 <-- DLTA
 ------------------------------------------------------------------------------
 Cycle:     69
  WF centre and spread    1  (  1.282875,  1.282874,  1.282874 )     5.71215222
  WF centre and spread    2  ( -1.282875,  1.282875, -1.282875 )     5.71215387
  WF centre and spread    3  ( -1.282875, -1.282875,  1.282875 )     5.71215531
  WF centre and spread    4  (  1.282875, -1.282875, -1.282875 )     5.71215265
  Sum of centres and spreads ( -0.000000, -0.000001, -0.000000 )    22.84861406

     69     0.317E-14     0.0000001552       22.8486140618       0.10  <-- CONV
        O_D=      0.0000000 O_OD=      2.0074491 O_TOT=     22.8486141 <-- SPRD
 Delta: O_D=  0.3097076E-16 O_OD=  0.3964678E-14 O_TOT=  0.3171743E-14 <-- DLTA
 ------------------------------------------------------------------------------
 Cycle:     70
  WF centre and spread    1  (  1.282875,  1.282874,  1.282874 )     5.71215222
  WF centre and spread    2  ( -1.282875,  1.282875, -1.282875 )     5.71215387
  WF centre and spread    3  ( -1.282875, -1.282875,  1.282875 )     5.71215531
  WF centre and spread    4  (  1.282875, -1.282875, -1.282875 )     5.71215265
  Sum of centres and spreads ( -0.000000, -0.000001, -0.000000 )    22.84861406

     70    -0.317E-14     0.0000001551       22.8486140618       0.10  <-- CONV
        O_D=      0.0000000 O_OD=      2.0074491 O_TOT=     22.8486141 <-- SPRD
 Delta: O_D=  0.5187565E-15 O_OD= -0.4757614E-14 O_TOT= -0.3171743E-14 <-- DLTA
 ------------------------------------------------------------------------------
 Cycle:     71
  WF centre and spread    1  (  1.282875,  1.282874,  1.282874 )     5.71215222
  WF centre and spread    2  ( -1.282875,  1.282875, -1.282875 )     5.71215387
  WF centre and spread    3  ( -1.282875, -1.282875,  1.282875 )     5.71215531
  WF centre and spread    4  (  1.282875, -1.282875, -1.282875 )     5.71215266
  Sum of centres and spreads ( -0.000000, -0.000001, -0.000000 )    22.84861406

     71    -0.127E-13     0.0000001527       22.8486140618       0.10  <-- CONV
        O_D=      0.0000000 O_OD=      2.0074491 O_TOT=     22.8486141 <-- SPRD
 Delta: O_D=  0.6321343E-15 O_OD= -0.1110110E-13 O_TOT= -0.1268697E-13 <-- DLTA
 ------------------------------------------------------------------------------
 Cycle:     72
  WF centre and spread    1  (  1.282875,  1.282874,  1.282874 )     5.71215222
  WF centre and spread    2  ( -1.282875,  1.282875, -1.282875 )     5.71215387
  WF centre and spread    3  ( -1.282875, -1.282875,  1.282875 )     5.71215531
  WF centre and spread    4  (  1.282875, -1.282875, -1.282875 )     5.71215266
  Sum of centres and spreads ( -0.000000, -0.000001, -0.000000 )    22.84861406

     72    -0.634E-14     0.0000001499       22.8486140618       0.10  <-- CONV
        O_D=      0.0000000 O_OD=      2.0074491 O_TOT=     22.8486141 <-- SPRD
 Delta: O_D=  0.1342401E-15 O_OD= -0.6739953E-14 O_TOT= -0.6343485E-14 <-- DLTA
 ------------------------------------------------------------------------------
 Cycle:     73
  WF centre and spread    1  (  1.282875,  1.282874,  1.282874 )     5.71215222
  WF centre and spread    2  ( -1.282875,  1.282875, -1.282875 )     5.71215387
  WF centre and spread    3  ( -1.282875, -1.282875,  1.282875 )     5.71215531
  WF centre and spread    4  (  1.282875, -1.282875, -1.282875 )     5.71215266
  Sum of centres and spreads ( -0.000000, -0.000001, -0.000000 )    22.84861406

     73     0.317E-14     0.0000001493       22.8486140618       0.10  <-- CONV
        O_D=      0.0000000 O_OD=      2.0074491 O_TOT=     22.8486141 <-- SPRD
 Delta: O_D=  0.5567511E-17 O_OD=  0.3568211E-14 O_TOT=  0.3171743E-14 <-- DLTA
 ------------------------------------------------------------------------------
 Cycle:     74
  WF centre and spread    1  (  1.282875,  1.282874,  1.282874 )     5.71215222
  WF centre and spread    2  ( -1.282875,  1.282875, -1.282875 )     5.71215387
  WF centre and spread    3  ( -1.282875, -1.282875,  1.282875 )     5.71215531
  WF centre and spread    4  (  1.282875, -1.282875, -1.282875 )     5.71215266
  Sum of centres and spreads ( -0.000000, -0.000001, -0.000000 )    22.84861406

     74     0.952E-14     0.0000001493       22.8486140618       0.10  <-- CONV
        O_D=      0.0000000 O_OD=      2.0074491 O_TOT=     22.8486141 <-- SPRD
 Delta: O_D=  0.2832910E-16 O_OD=  0.6343485E-14 O_TOT=  0.9515228E-14 <-- DLTA
 ------------------------------------------------------------------------------
 Cycle:     75
  WF centre and spread    1  (  1.282875,  1.282874,  1.282874 )     5.71215222
  WF centre and spread    2  ( -1.282875,  1.282875, -1.282875 )     5.71215387
  WF centre and spread    3  ( -1.282875, -1.282875,  1.282875 )     5.71215531
  WF centre and spread    4  (  1.282875, -1.282875, -1.282875 )     5.71215266
  Sum of centres and spreads ( -0.000000, -0.000001, -0.000000 )    22.84861406

     75    -0.634E-14     0.0000001492       22.8486140618       0.10  <-- CONV
        O_D=      0.0000000 O_OD=      2.0074491 O_TOT=     22.8486141 <-- SPRD
 Delta: O_D=  0.3738362E-15 O_OD= -0.5550550E-14 O_TOT= -0.6343485E-14 <-- DLTA
 ------------------------------------------------------------------------------
 Cycle:     76
  WF centre and spread    1  (  1.282875,  1.282874,  1.282874 )     5.71215222
  WF centre and spread    2  ( -1.282875,  1.282875, -1.282875 )     5.71215387
  WF centre and spread    3  ( -1.282875, -1.282875,  1.282875 )     5.71215531
  WF centre and spread    4  (  1.282875, -1.282875, -1.282875 )     5.71215266
  Sum of centres and spreads ( -0.000000, -0.000001, -0.000000 )    22.84861406

     76    -0.317E-14     0.0000001475       22.8486140618       0.11  <-- CONV
        O_D=      0.0000000 O_OD=      2.0074491 O_TOT=     22.8486141 <-- SPRD
 Delta: O_D=  0.4890214E-15 O_OD= -0.3568211E-14 O_TOT= -0.3171743E-14 <-- DLTA
 ------------------------------------------------------------------------------
 Cycle:     77
  WF centre and spread    1  (  1.282875,  1.282874,  1.282874 )     5.71215223
  WF centre and spread    2  ( -1.282875,  1.282875, -1.282875 )     5.71215387
  WF centre and spread    3  ( -1.282875, -1.282875,  1.282875 )     5.71215531
  WF centre and spread    4  (  1.282875, -1.282875, -1.282875 )     5.71215266
  Sum of centres and spreads ( -0.000000, -0.000001, -0.000000 )    22.84861406

     77    -0.634E-14     0.0000001453       22.8486140618       0.11  <-- CONV
        O_D=      0.0000000 O_OD=      2.0074491 O_TOT=     22.8486141 <-- SPRD
 Delta: O_D=  0.5963822E-15 O_OD= -0.6343485E-14 O_TOT= -0.6343485E-14 <-- DLTA
 ------------------------------------------------------------------------------
 Cycle:     78
  WF centre and spread    1  (  1.282875,  1.282874,  1.282874 )     5.71215223
  WF centre and spread    2  ( -1.282875,  1.282875, -1.282875 )     5.71215387
  WF centre and spread    3  ( -1.282875, -1.282875,  1.282875 )     5.71215531
  WF centre and spread    4  (  1.282875, -1.282875, -1.282875 )     5.71215266
  Sum of centres and spreads ( -0.000000, -0.000001, -0.000000 )    22.84861406

     78    -0.317E-14     0.0000001426       22.8486140618       0.11  <-- CONV
        O_D=      0.0000000 O_OD=      2.0074491 O_TOT=     22.8486141 <-- SPRD
 Delta: O_D=  0.6942878E-15 O_OD= -0.3964678E-14 O_TOT= -0.3171743E-14 <-- DLTA
 ------------------------------------------------------------------------------
 Cycle:     79
  WF centre and spread    1  (  1.282875,  1.282874,  1.282874 )     5.71215223
  WF centre and spread    2  ( -1.282875,  1.282875, -1.282875 )     5.71215387
  WF centre and spread    3  ( -1.282875, -1.282875,  1.282875 )     5.71215531
  WF centre and spread    4  (  1.282875, -1.282875, -1.282875 )     5.71215266
  Sum of centres and spreads ( -0.000000, -0.000001, -0.000000 )    22.84861406

     79    -0.634E-14     0.0000001395       22.8486140618       0.11  <-- CONV
        O_D=      0.0000000 O_OD=      2.0074491 O_TOT=     22.8486141 <-- SPRD
 Delta: O_D=  0.1156586E-15 O_OD= -0.5947018E-14 O_TOT= -0.6343485E-14 <-- DLTA
 ------------------------------------------------------------------------------
 Cycle:     80
  WF centre and spread    1  (  1.282875,  1.282874,  1.282874 )     5.71215223
  WF centre and spread    2  ( -1.282875,  1.282875, -1.282875 )     5.71215387
  WF centre and spread    3  ( -1.282875, -1.282875,  1.282875 )     5.71215530
  WF centre and spread    4  (  1.282875, -1.282875, -1.282875 )     5.71215266
  Sum of centres and spreads ( -0.000000, -0.000001, -0.000000 )    22.84861406

     80     0.317E-14     0.0000001390       22.8486140618       0.11  <-- CONV
        O_D=      0.0000000 O_OD=      2.0074491 O_TOT=     22.8486141 <-- SPRD
 Delta: O_D=  0.2300522E-15 O_OD=  0.2378807E-14 O_TOT=  0.3171743E-14 <-- DLTA
 ------------------------------------------------------------------------------
 Final State
  WF centre and spread    1  (  1.282875,  1.282874,  1.282874 )     5.71215223
  WF centre and spread    2  ( -1.282875,  1.282875, -1.282875 )     5.71215387
  WF centre and spread    3  ( -1.282875, -1.282875,  1.282875 )     5.71215530
  WF centre and spread    4  (  1.282875, -1.282875, -1.282875 )     5.71215266
  Sum of centres and spreads ( -0.000000, -0.000001, -0.000000 )    22.84861406

        Spreads (Bohr^2)       Omega I      =    20.841164939
        ================       Omega D      =     0.000000000
                               Omega OD     =     2.007449123
   Final Spread (Bohr^2)       Omega Total  =    22.848614062
 ------------------------------------------------------------------------------

 Wannier centres written to file si_centres.xyz
 Time for wannierise            0.111 (sec)

 Writing checkpoint file si.chk... done

 *---------------------------------------------------------------------------*
 |                               PLOTTING                                    |
 *---------------------------------------------------------------------------*

 Time for plotting              0.001 (sec)
 Total Execution Time           0.144 (sec)

 *===========================================================================*
 |                             TIMING INFORMATION                            |
 *===========================================================================*
 |    Tag                                                Ncalls      Time (s)|
 |---------------------------------------------------------------------------|
 |kmesh: get                                        :         1         0.020|
 |overlap: allocate                                 :         1         0.000|
 |overlap: read                                     :         1         0.009|
 |wann: main                                        :         1         0.111|
 |plot: main                                        :         1         0.001|
 *---------------------------------------------------------------------------*

 All done: wannier90 exiting
