
             +---------------------------------------------------+
             |                                                   |
             |                   WANNIER90                       |
             |                                                   |
             +---------------------------------------------------+
             |                                                   |
             |        Welcome to the Maximally-Localized         |
             |        Generalized Wannier Functions code         |
             |            http://www.wannier.org                 |
             |                                                   |
             |                                                   |
             |  Wannier90 Developer Group:                       |
             |    Giovanni Pizzi    (EPFL)                       |
             |    Valerio Vitale    (Cambridge)                  |
             |    David Vanderbilt  (Rutgers University)         |
             |    Nicola Marzari    (EPFL)                       |
             |    Ivo Souza         (Universidad del Pais Vasco) |
             |    Arash A. Mostofi  (Imperial College London)    |
             |    Jonathan R. Yates (University of Oxford)       |
             |                                                   |
             |  For the full list of Wannier90 3.x authors,      |
             |  please check the code documentation and the      |
             |  README on the GitHub page of the code            |
             |                                                   |
             |                                                   |
             |  Please cite                                      |
             |                                                   |
             |  [ref] "Wannier90 as a community code:            |
             |        new features and applications",            |
             |        G. Pizzi et al., J. Phys. Cond. Matt. 32,  |
             |        165902 (2020).                             |
             |        http://doi.org/10.1088/1361-648X/ab51ff    |
             |                                                   |
             |  in any publications arising from the use of      |
             |  this code. For the method please cite            |
             |                                                   |
             |  [ref] "Maximally Localized Generalised Wannier   |
             |         Functions for Composite Energy Bands"     |
             |         N. Marzari and D. Vanderbilt              |
             |         Phys. Rev. B 56 12847 (1997)              |
             |                                                   |
             |  [ref] "Maximally Localized Wannier Functions     |
             |         for Entangled Energy Bands"               |
             |         I. Souza, N. Marzari and D. Vanderbilt    |
             |         Phys. Rev. B 65 035109 (2001)             |
             |                                                   |
             |                                                   |
             | Copyright (c) 1996-2020                           |
             |        The Wannier90 Developer Group and          |
             |        individual contributors                    |
             |                                                   |
             |      Release: 3.1.0        5th March    2020      |
             |                                                   |
             | This program is free software; you can            |
             | redistribute it and/or modify it under the terms  |
             | of the GNU General Public License as published by |
             | the Free Software Foundation; either version 2 of |
             | the License, or (at your option) any later version|
             |                                                   |
             | This program is distributed in the hope that it   |
             | will be useful, but WITHOUT ANY WARRANTY; without |
             | even the implied warranty of MERCHANTABILITY or   |
             | FITNESS FOR A PARTICULAR PURPOSE. See the GNU     |
             | General Public License for more details.          |
             |                                                   |
             | You should have received a copy of the GNU General|
             | Public License along with this program; if not,   |
             | write to the Free Software Foundation, Inc.,      |
             | 675 Mass Ave, Cambridge, MA 02139, USA.           |
             |                                                   |
             +---------------------------------------------------+
             |    Execution started on 11Jan2022 at 18:11:44     |
             +---------------------------------------------------+
 
 ******************************************************************************
 * -> Using CODATA 2006 constant values                                       *
 *    (http://physics.nist.gov/cuu/Constants/index.html)                      *
 * -> Using Bohr value from CODATA                                            *
 ******************************************************************************
 

 Running in serial (with serial executable)

                                    ------
                                    SYSTEM
                                    ------

                            Lattice Vectors (Bohr)
                    a_1    -5.131500   0.000000   5.131500
                    a_2     0.000000   5.131500   5.131500
                    a_3    -5.131500   5.131500   0.000000

                   Unit Cell Volume:     270.24832  (Bohr^3)

                      Reciprocal-Space Vectors (Bohr^-1)
                    b_1    -0.612217  -0.612217   0.612217
                    b_2     0.612217   0.612217   0.612217
                    b_3    -0.612217   0.612217  -0.612217
  
 *----------------------------------------------------------------------------*
 |   Site       Fractional Coordinate          Cartesian Coordinate (Bohr)    |
 +----------------------------------------------------------------------------+
 | Si   1  -0.25000   0.75000  -0.25000   |    2.56575   2.56575   2.56575    |
 | Si   2   0.00000   0.00000   0.00000   |    0.00000   0.00000   0.00000    |
 *----------------------------------------------------------------------------*
                                ------------
                                K-POINT GRID
                                ------------
  
             Grid size =  4 x  4 x  4      Total points =   64
  
 *----------------------------------------------------------------------------*
 | k-point      Fractional Coordinate        Cartesian Coordinate (Bohr^-1)   |
 +----------------------------------------------------------------------------+
 |     1    0.00000   0.00000   0.00000   |    0.00000   0.00000   0.00000    |
 |     2    0.00000   0.00000   0.25000   |   -0.15305   0.15305  -0.15305    |
 |     3    0.00000   0.00000   0.50000   |   -0.30611   0.30611  -0.30611    |
 |     4    0.00000   0.00000   0.75000   |   -0.45916   0.45916  -0.45916    |
 |     5    0.00000   0.25000   0.00000   |    0.15305   0.15305   0.15305    |
 |     6    0.00000   0.25000   0.25000   |    0.00000   0.30611   0.00000    |
 |     7    0.00000   0.25000   0.50000   |   -0.15305   0.45916  -0.15305    |
 |     8    0.00000   0.25000   0.75000   |   -0.30611   0.61222  -0.30611    |
 |     9    0.00000   0.50000   0.00000   |    0.30611   0.30611   0.30611    |
 |    10    0.00000   0.50000   0.25000   |    0.15305   0.45916   0.15305    |
 |    11    0.00000   0.50000   0.50000   |    0.00000   0.61222   0.00000    |
 |    12    0.00000   0.50000   0.75000   |   -0.15305   0.76527  -0.15305    |
 |    13    0.00000   0.75000   0.00000   |    0.45916   0.45916   0.45916    |
 |    14    0.00000   0.75000   0.25000   |    0.30611   0.61222   0.30611    |
 |    15    0.00000   0.75000   0.50000   |    0.15305   0.76527   0.15305    |
 |    16    0.00000   0.75000   0.75000   |    0.00000   0.91833   0.00000    |
 |    17    0.25000   0.00000   0.00000   |   -0.15305  -0.15305   0.15305    |
 |    18    0.25000   0.00000   0.25000   |   -0.30611   0.00000   0.00000    |
 |    19    0.25000   0.00000   0.50000   |   -0.45916   0.15305  -0.15305    |
 |    20    0.25000   0.00000   0.75000   |   -0.61222   0.30611  -0.30611    |
 |    21    0.25000   0.25000   0.00000   |    0.00000   0.00000   0.30611    |
 |    22    0.25000   0.25000   0.25000   |   -0.15305   0.15305   0.15305    |
 |    23    0.25000   0.25000   0.50000   |   -0.30611   0.30611   0.00000    |
 |    24    0.25000   0.25000   0.75000   |   -0.45916   0.45916  -0.15305    |
 |    25    0.25000   0.50000   0.00000   |    0.15305   0.15305   0.45916    |
 |    26    0.25000   0.50000   0.25000   |    0.00000   0.30611   0.30611    |
 |    27    0.25000   0.50000   0.50000   |   -0.15305   0.45916   0.15305    |
 |    28    0.25000   0.50000   0.75000   |   -0.30611   0.61222   0.00000    |
 |    29    0.25000   0.75000   0.00000   |    0.30611   0.30611   0.61222    |
 |    30    0.25000   0.75000   0.25000   |    0.15305   0.45916   0.45916    |
 |    31    0.25000   0.75000   0.50000   |    0.00000   0.61222   0.30611    |
 |    32    0.25000   0.75000   0.75000   |   -0.15305   0.76527   0.15305    |
 |    33    0.50000   0.00000   0.00000   |   -0.30611  -0.30611   0.30611    |
 |    34    0.50000   0.00000   0.25000   |   -0.45916  -0.15305   0.15305    |
 |    35    0.50000   0.00000   0.50000   |   -0.61222   0.00000   0.00000    |
 |    36    0.50000   0.00000   0.75000   |   -0.76527   0.15305  -0.15305    |
 |    37    0.50000   0.25000   0.00000   |   -0.15305  -0.15305   0.45916    |
 |    38    0.50000   0.25000   0.25000   |   -0.30611   0.00000   0.30611    |
 |    39    0.50000   0.25000   0.50000   |   -0.45916   0.15305   0.15305    |
 |    40    0.50000   0.25000   0.75000   |   -0.61222   0.30611   0.00000    |
 |    41    0.50000   0.50000   0.00000   |    0.00000   0.00000   0.61222    |
 |    42    0.50000   0.50000   0.25000   |   -0.15305   0.15305   0.45916    |
 |    43    0.50000   0.50000   0.50000   |   -0.30611   0.30611   0.30611    |
 |    44    0.50000   0.50000   0.75000   |   -0.45916   0.45916   0.15305    |
 |    45    0.50000   0.75000   0.00000   |    0.15305   0.15305   0.76527    |
 |    46    0.50000   0.75000   0.25000   |    0.00000   0.30611   0.61222    |
 |    47    0.50000   0.75000   0.50000   |   -0.15305   0.45916   0.45916    |
 |    48    0.50000   0.75000   0.75000   |   -0.30611   0.61222   0.30611    |
 |    49    0.75000   0.00000   0.00000   |   -0.45916  -0.45916   0.45916    |
 |    50    0.75000   0.00000   0.25000   |   -0.61222  -0.30611   0.30611    |
 |    51    0.75000   0.00000   0.50000   |   -0.76527  -0.15305   0.15305    |
 |    52    0.75000   0.00000   0.75000   |   -0.91833   0.00000   0.00000    |
 |    53    0.75000   0.25000   0.00000   |   -0.30611  -0.30611   0.61222    |
 |    54    0.75000   0.25000   0.25000   |   -0.45916  -0.15305   0.45916    |
 |    55    0.75000   0.25000   0.50000   |   -0.61222   0.00000   0.30611    |
 |    56    0.75000   0.25000   0.75000   |   -0.76527   0.15305   0.15305    |
 |    57    0.75000   0.50000   0.00000   |   -0.15305  -0.15305   0.76527    |
 |    58    0.75000   0.50000   0.25000   |   -0.30611   0.00000   0.61222    |
 |    59    0.75000   0.50000   0.50000   |   -0.45916   0.15305   0.45916    |
 |    60    0.75000   0.50000   0.75000   |   -0.61222   0.30611   0.30611    |
 |    61    0.75000   0.75000   0.00000   |    0.00000   0.00000   0.91833    |
 |    62    0.75000   0.75000   0.25000   |   -0.15305   0.15305   0.76527    |
 |    63    0.75000   0.75000   0.50000   |   -0.30611   0.30611   0.61222    |
 |    64    0.75000   0.75000   0.75000   |   -0.45916   0.45916   0.45916    |
 *----------------------------------------------------------------------------*
  
  
 *---------------------------------- MAIN ------------------------------------*
 |  Number of Wannier Functions               :                20             |
 |  Number of Objective Wannier Functions     :                20             |
 |  Number of input Bloch states              :                20             |
 |  Output verbosity (1=low, 5=high)          :                 2             |
 |  Timing Level (1=low, 5=high)              :                 1             |
 |  Optimisation (0=memory, 3=speed)          :                 3             |
 |  Length Unit                               :              Bohr             |
 |  Post-processing setup (write *.nnkp)      :                 F             |
 |  Using Gamma-only branch of algorithms     :                 F             |
 *----------------------------------------------------------------------------*
 *------------------------------- WANNIERISE ---------------------------------*
 |  Total number of iterations                :                 0             |
 |  Number of CG steps before reset           :                 5             |
 |  Trial step length for line search         :             2.000             |
 |  Convergence tolerence                     :         0.100E-09             |
 |  Convergence window                        :                -1             |
 |  Iterations between writing output         :                 1             |
 |  Iterations between backing up to disk     :               100             |
 |  Write r^2_nm to file                      :                 F             |
 |  Write xyz WF centres to file              :                 T             |
 |  Write on-site energies <0n|H|0n> to file  :                 F             |
 |  Use guiding centre to control phases      :                 F             |
 |  Use phases for initial projections        :                 F             |
 *----------------------------------------------------------------------------*
 Time to read parameters        0.004 (sec)

 *---------------------------------- K-MESH ----------------------------------*
 +----------------------------------------------------------------------------+
 |                    Distance to Nearest-Neighbour Shells                    |
 |                    ------------------------------------                    |
 |          Shell             Distance (Bohr^-1)         Multiplicity         |
 |          -----             ------------------         ------------         |
 |             1                   0.265098                      8            |
 |             2                   0.306109                      6            |
 |             3                   0.432903                     12            |
 |             4                   0.507624                     24            |
 |             5                   0.530196                      8            |
 |             6                   0.612217                      6            |
 |             7                   0.667148                     24            |
 |             8                   0.684480                     24            |
 |             9                   0.749810                     24            |
 |            10                   0.795293                     32            |
 |            11                   0.865806                     12            |
 |            12                   0.905481                     48            |
 |            13                   0.918326                     30            |
 |            14                   0.968000                     24            |
 |            15                   1.003644                     24            |
 |            16                   1.015247                     24            |
 |            17                   1.060391                      8            |
 |            18                   1.093026                     48            |
 |            19                   1.103690                     24            |
 |            20                   1.145354                     48            |
 |            21                   1.175632                     72            |
 |            22                   1.224434                      6            |
 |            23                   1.252803                     24            |
 |            24                   1.262118                     48            |
 |            25                   1.298709                     36            |
 |            26                   1.325489                     56            |
 |            27                   1.334296                     24            |
 |            28                   1.368959                     24            |
 |            29                   1.394391                     72            |
 |            30                   1.402766                     48            |
 |            31                   1.435777                     24            |
 |            32                   1.460045                     48            |
 |            33                   1.499620                     24            |
 |            34                   1.522871                     72            |
 |            35                   1.530543                     30            |
 |            36                   1.560854                     72            |
 +----------------------------------------------------------------------------+
 | The b-vectors are chosen automatically                                     |
 | Shell:  1 w_b    5.3360380     (Bohr^2)                                    |
 | The following shells are used:   1                                         |
 +----------------------------------------------------------------------------+
 |                        Shell   # Nearest-Neighbours                        |
 |                        -----   --------------------                        |
 |                          1               8                                 |
 +----------------------------------------------------------------------------+
 | Completeness relation is fully satisfied [Eq. (B1), PRB 56, 12847 (1997)]  |
 +----------------------------------------------------------------------------+
 |                 b_k Vectors (Bohr^-1) and Weights (Bohr^2)                 |
 |                 ------------------------------------------                 |
 |            No.         b_k(x)      b_k(y)      b_k(z)        w_b           |
 |            ---        --------------------------------     --------        |
 |             1        -0.153054    0.153054   -0.153054     5.336038        |
 |             2         0.153054    0.153054    0.153054     5.336038        |
 |             3        -0.153054   -0.153054    0.153054     5.336038        |
 |             4        -0.153054    0.153054    0.153054     5.336038        |
 |             5         0.153054   -0.153054    0.153054     5.336038        |
 |             6        -0.153054   -0.153054   -0.153054     5.336038        |
 |             7         0.153054    0.153054   -0.153054     5.336038        |
 |             8         0.153054   -0.153054   -0.153054     5.336038        |
 +----------------------------------------------------------------------------+
 |                           b_k Directions (Bohr^-1)                         |
 |                           ------------------------                         |
 |            No.           x           y           z                         |
 |            ---        --------------------------------                     |
 |             1        -0.153054    0.153054   -0.153054                     |
 |             2         0.153054    0.153054    0.153054                     |
 |             3        -0.153054   -0.153054    0.153054                     |
 |             4        -0.153054    0.153054    0.153054                     |
 +----------------------------------------------------------------------------+
  
 Time to get kmesh              0.019 (sec)
 *============================================================================*
 |                              MEMORY ESTIMATE                               |
 |         Maximum RAM allocated during each phase of the calculation         |
 *============================================================================*
 |                            Wannierise:            8.27 Mb                  |
 |                                                                            |
 |   N.B. by setting optimisation=0 memory usage will be reduced to:          |
 |                            Wannierise:            5.15 Mb                  |
 |   However, this will result in more i/o and slow down the calculation      |
 |                          plot_wannier:            8.27 Mb                  |
 *----------------------------------------------------------------------------*
  
 Starting a new Wannier90 calculation ...


 Reading overlaps from si.mmn    :  Created on  4Nov2021 at 18:42:27
 Before bloch phase            (0.93993164657299999,-0.32490530497199999)

 Reading projections from si.amn :  Created on  4Nov2021 at 18:42:27  with SCDM
 u 111       (0.22039738783900001,-4.69504362719999971E-002)
 u 121       (0.21655772957600000,-2.27606295770000008E-002)
 After bloch phase            (0.93993164657299999,-0.32490530497199999)
 running overlap_project
       (0.22039738783900001,-4.69504362719999971E-002)
       (0.21655772957600000,-2.27606295770000008E-002)
       (-0.99367464528399996,4.05666882969999976E-002)
 end of overlap read             (0.68113682870651748,0.19441556350251432)
 right after overlap read             (0.68113682870651748,0.19441556350251432)

 Time to read overlaps          0.198 (sec)

 Writing checkpoint file si.chk... done

 at the start of wannierize             (0.68113682870651748,0.19441556350251432)

 *------------------------------- WANNIERISE ---------------------------------*
 +--------------------------------------------------------------------+<-- CONV
 | Iter  Delta Spread     RMS Gradient      Spread (Bohr^2)     Time  |<-- CONV
 +--------------------------------------------------------------------+<-- CONV

             (0.51130606080639185,0.54468481207629793)
            (0.68760248170789728,-0.24726067511852651)
        (0.95497390215381983,2.14367698922523602E-002)
        (0.94609710104871247,2.24223892764866262E-002)
       (0.86381202162192472,-3.61638924620649033E-002)
             (0.82762311368765762,0.35711407338455936)
             (0.85524734045560435,0.16399655196515897)
             (0.88334677577137455,0.18720486670427361)
             (0.89201457827146113,0.14457887209362333)
             (0.71436047088676602,0.54146577430624077)
             (0.79191318540753108,0.42138481733203798)
            (0.88358878403767938,-0.21707809545708487)
             (0.92716031970141899,0.18861301625908158)
             (0.72825992993729227,0.49060227150616376)
       (0.84928142191700173,-6.85431560648076810E-002)
             (0.85486926865436108,0.16796782496905474)
            (0.77852576478582236,-0.56149595555280707)
            (0.82733894196890878,-0.49778873189516665)
            (0.71263308820421700,-0.61103172441259368)
            (0.90618893074321860,-0.40473376765639657)
 ------------------------------------------------------------------------------
             (0.68113682870651748,0.19441556350251432)
 Initial State
  WF centre and spread    1  (  1.751302, -3.656156, -3.154520 )    15.47179726
  WF centre and spread    2  (  0.662933,  1.224859,  0.588340 )    13.17038702
  WF centre and spread    3  (  0.751350, -1.252297,  0.334295 )     7.64407335
  WF centre and spread    4  (  0.745342,  0.390014, -1.239850 )     8.25678268
  WF centre and spread    5  ( -1.204118,  0.700036,  0.596825 )     9.77938941
  WF centre and spread    6  ( -0.731020, -0.808056, -1.032846 )     7.87085298
  WF centre and spread    7  (  2.542534, -2.518040, -1.119903 )     9.17499993
  WF centre and spread    8  (  2.213292, -1.116839, -2.496139 )     8.44416108
  WF centre and spread    9  ( -1.433266, -1.527580,  1.371041 )     9.83532580
  WF centre and spread   10  (  2.083056, -2.221819, -3.950472 )    10.35456759
  WF centre and spread   11  (  3.593463, -3.384827, -3.215746 )    11.23672086
  WF centre and spread   12  (  0.129847, -0.030452,  1.388568 )     9.93107295
  WF centre and spread   13  ( -1.283663,  1.192107, -1.304339 )     8.86266731
  WF centre and spread   14  (  1.120100, -2.677675, -2.025788 )     7.67576041
  WF centre and spread   15  (  3.978456, -2.243099, -2.060208 )    10.03275833
  WF centre and spread   16  ( -3.917846,  1.254606,  1.095461 )    15.04579948
  WF centre and spread   17  ( -1.054748,  4.053913,  1.282466 )    14.16030120
  WF centre and spread   18  ( -1.549755,  1.039485,  4.050678 )    12.06222393
  WF centre and spread   19  ( -3.226431,  4.489533,  3.791046 )    13.83179659
  WF centre and spread   20  ( -2.434481,  2.608875,  2.188386 )    23.16652774
  Sum of centres and spreads (  2.736347, -4.483414, -4.912705 )   226.00796590

      0     0.226E+03     0.0000000000      226.0079658975       0.00  <-- CONV
        O_D=      4.6173871 O_OD=    128.8607251 O_TOT=    226.0079659 <-- SPRD
 ------------------------------------------------------------------------------
 Final State
  WF centre and spread    1  (  1.751302, -3.656156, -3.154520 )    15.47179726
  WF centre and spread    2  (  0.662933,  1.224859,  0.588340 )    13.17038702
  WF centre and spread    3  (  0.751350, -1.252297,  0.334295 )     7.64407335
  WF centre and spread    4  (  0.745342,  0.390014, -1.239850 )     8.25678268
  WF centre and spread    5  ( -1.204118,  0.700036,  0.596825 )     9.77938941
  WF centre and spread    6  ( -0.731020, -0.808056, -1.032846 )     7.87085298
  WF centre and spread    7  (  2.542534, -2.518040, -1.119903 )     9.17499993
  WF centre and spread    8  (  2.213292, -1.116839, -2.496139 )     8.44416108
  WF centre and spread    9  ( -1.433266, -1.527580,  1.371041 )     9.83532580
  WF centre and spread   10  (  2.083056, -2.221819, -3.950472 )    10.35456759
  WF centre and spread   11  (  3.593463, -3.384827, -3.215746 )    11.23672086
  WF centre and spread   12  (  0.129847, -0.030452,  1.388568 )     9.93107295
  WF centre and spread   13  ( -1.283663,  1.192107, -1.304339 )     8.86266731
  WF centre and spread   14  (  1.120100, -2.677675, -2.025788 )     7.67576041
  WF centre and spread   15  (  3.978456, -2.243099, -2.060208 )    10.03275833
  WF centre and spread   16  ( -3.917846,  1.254606,  1.095461 )    15.04579948
  WF centre and spread   17  ( -1.054748,  4.053913,  1.282466 )    14.16030120
  WF centre and spread   18  ( -1.549755,  1.039485,  4.050678 )    12.06222393
  WF centre and spread   19  ( -3.226431,  4.489533,  3.791046 )    13.83179659
  WF centre and spread   20  ( -2.434481,  2.608875,  2.188386 )    23.16652774
  Sum of centres and spreads (  2.736347, -4.483414, -4.912705 )   226.00796590

        Spreads (Bohr^2)       Omega I      =    92.529853668
        ================       Omega D      =     4.617387119
                               Omega OD     =   128.860725110
   Final Spread (Bohr^2)       Omega Total  =   226.007965898
 ------------------------------------------------------------------------------

 Wannier centres written to file si_centres.xyz
 Time for wannierise            0.005 (sec)

 Writing checkpoint file si.chk... done

 *---------------------------------------------------------------------------*
 |                               PLOTTING                                    |
 *---------------------------------------------------------------------------*

 Time for plotting              0.020 (sec)
 Total Execution Time           0.250 (sec)

 *===========================================================================*
 |                             TIMING INFORMATION                            |
 *===========================================================================*
 |    Tag                                                Ncalls      Time (s)|
 |---------------------------------------------------------------------------|
 |kmesh: get                                        :         1         0.019|
 |overlap: allocate                                 :         1         0.001|
 |overlap: read                                     :         1         0.197|
 |wann: main                                        :         1         0.005|
 |plot: main                                        :         1         0.020|
 *---------------------------------------------------------------------------*

 All done: wannier90 exiting
