
             +---------------------------------------------------+
             |                                                   |
             |                   WANNIER90                       |
             |                                                   |
             +---------------------------------------------------+
             |                                                   |
             |        Welcome to the Maximally-Localized         |
             |        Generalized Wannier Functions code         |
             |            http://www.wannier.org                 |
             |                                                   |
             |                                                   |
             |  Wannier90 Developer Group:                       |
             |    Giovanni Pizzi    (EPFL)                       |
             |    Valerio Vitale    (Cambridge)                  |
             |    David Vanderbilt  (Rutgers University)         |
             |    Nicola Marzari    (EPFL)                       |
             |    Ivo Souza         (Universidad del Pais Vasco) |
             |    Arash A. Mostofi  (Imperial College London)    |
             |    Jonathan R. Yates (University of Oxford)       |
             |                                                   |
             |  For the full list of Wannier90 3.x authors,      |
             |  please check the code documentation and the      |
             |  README on the GitHub page of the code            |
             |                                                   |
             |                                                   |
             |  Please cite                                      |
             |                                                   |
             |  [ref] "Wannier90 as a community code:            |
             |        new features and applications",            |
             |        G. Pizzi et al., J. Phys. Cond. Matt. 32,  |
             |        165902 (2020).                             |
             |        http://doi.org/10.1088/1361-648X/ab51ff    |
             |                                                   |
             |  in any publications arising from the use of      |
             |  this code. For the method please cite            |
             |                                                   |
             |  [ref] "Maximally Localized Generalised Wannier   |
             |         Functions for Composite Energy Bands"     |
             |         N. Marzari and D. Vanderbilt              |
             |         Phys. Rev. B 56 12847 (1997)              |
             |                                                   |
             |  [ref] "Maximally Localized Wannier Functions     |
             |         for Entangled Energy Bands"               |
             |         I. Souza, N. Marzari and D. Vanderbilt    |
             |         Phys. Rev. B 65 035109 (2001)             |
             |                                                   |
             |                                                   |
             | Copyright (c) 1996-2020                           |
             |        The Wannier90 Developer Group and          |
             |        individual contributors                    |
             |                                                   |
             |      Release: 3.1.0        5th March    2020      |
             |                                                   |
             | This program is free software; you can            |
             | redistribute it and/or modify it under the terms  |
             | of the GNU General Public License as published by |
             | the Free Software Foundation; either version 2 of |
             | the License, or (at your option) any later version|
             |                                                   |
             | This program is distributed in the hope that it   |
             | will be useful, but WITHOUT ANY WARRANTY; without |
             | even the implied warranty of MERCHANTABILITY or   |
             | FITNESS FOR A PARTICULAR PURPOSE. See the GNU     |
             | General Public License for more details.          |
             |                                                   |
             | You should have received a copy of the GNU General|
             | Public License along with this program; if not,   |
             | write to the Free Software Foundation, Inc.,      |
             | 675 Mass Ave, Cambridge, MA 02139, USA.           |
             |                                                   |
             +---------------------------------------------------+
             |    Execution started on  4Nov2021 at 09:29:37     |
             +---------------------------------------------------+
 
 ******************************************************************************
 * -> Using CODATA 2006 constant values                                       *
 *    (http://physics.nist.gov/cuu/Constants/index.html)                      *
 * -> Using Bohr value from CODATA                                            *
 ******************************************************************************
 

 Running in serial (with serial executable)

                                    ------
                                    SYSTEM
                                    ------

                            Lattice Vectors (Bohr)
                    a_1    -5.131500   0.000000   5.131500
                    a_2     0.000000   5.131500   5.131500
                    a_3    -5.131500   5.131500   0.000000

                   Unit Cell Volume:     270.24832  (Bohr^3)

                      Reciprocal-Space Vectors (Bohr^-1)
                    b_1    -0.612217  -0.612217   0.612217
                    b_2     0.612217   0.612217   0.612217
                    b_3    -0.612217   0.612217  -0.612217
  
 *----------------------------------------------------------------------------*
 |   Site       Fractional Coordinate          Cartesian Coordinate (Bohr)    |
 +----------------------------------------------------------------------------+
 | Si   1  -0.25000   0.75000  -0.25000   |    2.56575   2.56575   2.56575    |
 | Si   2   0.00000   0.00000   0.00000   |    0.00000   0.00000   0.00000    |
 *----------------------------------------------------------------------------*
                                -----------
                                PROJECTIONS
                                -----------
  
 +----------------------------------------------------------------------------+
 |     Frac. Coord.   l mr  r        z-axis               x-axis          Z/a |
 +----------------------------------------------------------------------------+
 |  0.60  0.55  0.21  0  1  1  0.000  0.000  1.000  1.000  0.000  0.000   1.0 |
 |  0.57  0.32  0.83  0  1  1  0.000  0.000  1.000  1.000  0.000  0.000   1.0 |
 |  0.38  0.62  0.08  0  1  1  0.000  0.000  1.000  1.000  0.000  0.000   1.0 |
 |  0.91  0.83  0.23  0  1  1  0.000  0.000  1.000  1.000  0.000  0.000   1.0 |
 |  0.44  0.65  0.16  0  1  1  0.000  0.000  1.000  1.000  0.000  0.000   1.0 |
 |  0.60  0.15  0.49  0  1  1  0.000  0.000  1.000  1.000  0.000  0.000   1.0 |
 |  0.43  0.92  0.88  0  1  1  0.000  0.000  1.000  1.000  0.000  0.000   1.0 |
 |  0.57  0.24  0.70  0  1  1  0.000  0.000  1.000  1.000  0.000  0.000   1.0 |
 |  0.98  0.50  0.79  0  1  1  0.000  0.000  1.000  1.000  0.000  0.000   1.0 |
 |  0.78  0.58  0.23  0  1  1  0.000  0.000  1.000  1.000  0.000  0.000   1.0 |
 |  0.61  0.65  0.47  0  1  1  0.000  0.000  1.000  1.000  0.000  0.000   1.0 |
 |  0.91  0.50  0.49  0  1  1  0.000  0.000  1.000  1.000  0.000  0.000   1.0 |
 |  0.94  0.85  0.53  0  1  1  0.000  0.000  1.000  1.000  0.000  0.000   1.0 |
 |  0.42  0.12  0.20  0  1  1  0.000  0.000  1.000  1.000  0.000  0.000   1.0 |
 |  0.54  0.47  0.66  0  1  1  0.000  0.000  1.000  1.000  0.000  0.000   1.0 |
 |  0.71  0.96  0.21  0  1  1  0.000  0.000  1.000  1.000  0.000  0.000   1.0 |
 |  0.70  0.57  0.21  0  1  1  0.000  0.000  1.000  1.000  0.000  0.000   1.0 |
 |  0.48  0.69  0.47  0  1  1  0.000  0.000  1.000  1.000  0.000  0.000   1.0 |
 |  0.84  0.57  0.21  0  1  1  0.000  0.000  1.000  1.000  0.000  0.000   1.0 |
 |  0.57  0.07  0.53  0  1  1  0.000  0.000  1.000  1.000  0.000  0.000   1.0 |
 +----------------------------------------------------------------------------+
  
                                ------------
                                K-POINT GRID
                                ------------
  
             Grid size =  4 x  4 x  4      Total points =   64
  
 *----------------------------------------------------------------------------*
 | k-point      Fractional Coordinate        Cartesian Coordinate (Bohr^-1)   |
 +----------------------------------------------------------------------------+
 |     1    0.00000   0.00000   0.00000   |    0.00000   0.00000   0.00000    |
 |     2    0.00000   0.00000   0.25000   |   -0.15305   0.15305  -0.15305    |
 |     3    0.00000   0.00000   0.50000   |   -0.30611   0.30611  -0.30611    |
 |     4    0.00000   0.00000   0.75000   |   -0.45916   0.45916  -0.45916    |
 |     5    0.00000   0.25000   0.00000   |    0.15305   0.15305   0.15305    |
 |     6    0.00000   0.25000   0.25000   |    0.00000   0.30611   0.00000    |
 |     7    0.00000   0.25000   0.50000   |   -0.15305   0.45916  -0.15305    |
 |     8    0.00000   0.25000   0.75000   |   -0.30611   0.61222  -0.30611    |
 |     9    0.00000   0.50000   0.00000   |    0.30611   0.30611   0.30611    |
 |    10    0.00000   0.50000   0.25000   |    0.15305   0.45916   0.15305    |
 |    11    0.00000   0.50000   0.50000   |    0.00000   0.61222   0.00000    |
 |    12    0.00000   0.50000   0.75000   |   -0.15305   0.76527  -0.15305    |
 |    13    0.00000   0.75000   0.00000   |    0.45916   0.45916   0.45916    |
 |    14    0.00000   0.75000   0.25000   |    0.30611   0.61222   0.30611    |
 |    15    0.00000   0.75000   0.50000   |    0.15305   0.76527   0.15305    |
 |    16    0.00000   0.75000   0.75000   |    0.00000   0.91833   0.00000    |
 |    17    0.25000   0.00000   0.00000   |   -0.15305  -0.15305   0.15305    |
 |    18    0.25000   0.00000   0.25000   |   -0.30611   0.00000   0.00000    |
 |    19    0.25000   0.00000   0.50000   |   -0.45916   0.15305  -0.15305    |
 |    20    0.25000   0.00000   0.75000   |   -0.61222   0.30611  -0.30611    |
 |    21    0.25000   0.25000   0.00000   |    0.00000   0.00000   0.30611    |
 |    22    0.25000   0.25000   0.25000   |   -0.15305   0.15305   0.15305    |
 |    23    0.25000   0.25000   0.50000   |   -0.30611   0.30611   0.00000    |
 |    24    0.25000   0.25000   0.75000   |   -0.45916   0.45916  -0.15305    |
 |    25    0.25000   0.50000   0.00000   |    0.15305   0.15305   0.45916    |
 |    26    0.25000   0.50000   0.25000   |    0.00000   0.30611   0.30611    |
 |    27    0.25000   0.50000   0.50000   |   -0.15305   0.45916   0.15305    |
 |    28    0.25000   0.50000   0.75000   |   -0.30611   0.61222   0.00000    |
 |    29    0.25000   0.75000   0.00000   |    0.30611   0.30611   0.61222    |
 |    30    0.25000   0.75000   0.25000   |    0.15305   0.45916   0.45916    |
 |    31    0.25000   0.75000   0.50000   |    0.00000   0.61222   0.30611    |
 |    32    0.25000   0.75000   0.75000   |   -0.15305   0.76527   0.15305    |
 |    33    0.50000   0.00000   0.00000   |   -0.30611  -0.30611   0.30611    |
 |    34    0.50000   0.00000   0.25000   |   -0.45916  -0.15305   0.15305    |
 |    35    0.50000   0.00000   0.50000   |   -0.61222   0.00000   0.00000    |
 |    36    0.50000   0.00000   0.75000   |   -0.76527   0.15305  -0.15305    |
 |    37    0.50000   0.25000   0.00000   |   -0.15305  -0.15305   0.45916    |
 |    38    0.50000   0.25000   0.25000   |   -0.30611   0.00000   0.30611    |
 |    39    0.50000   0.25000   0.50000   |   -0.45916   0.15305   0.15305    |
 |    40    0.50000   0.25000   0.75000   |   -0.61222   0.30611   0.00000    |
 |    41    0.50000   0.50000   0.00000   |    0.00000   0.00000   0.61222    |
 |    42    0.50000   0.50000   0.25000   |   -0.15305   0.15305   0.45916    |
 |    43    0.50000   0.50000   0.50000   |   -0.30611   0.30611   0.30611    |
 |    44    0.50000   0.50000   0.75000   |   -0.45916   0.45916   0.15305    |
 |    45    0.50000   0.75000   0.00000   |    0.15305   0.15305   0.76527    |
 |    46    0.50000   0.75000   0.25000   |    0.00000   0.30611   0.61222    |
 |    47    0.50000   0.75000   0.50000   |   -0.15305   0.45916   0.45916    |
 |    48    0.50000   0.75000   0.75000   |   -0.30611   0.61222   0.30611    |
 |    49    0.75000   0.00000   0.00000   |   -0.45916  -0.45916   0.45916    |
 |    50    0.75000   0.00000   0.25000   |   -0.61222  -0.30611   0.30611    |
 |    51    0.75000   0.00000   0.50000   |   -0.76527  -0.15305   0.15305    |
 |    52    0.75000   0.00000   0.75000   |   -0.91833   0.00000   0.00000    |
 |    53    0.75000   0.25000   0.00000   |   -0.30611  -0.30611   0.61222    |
 |    54    0.75000   0.25000   0.25000   |   -0.45916  -0.15305   0.45916    |
 |    55    0.75000   0.25000   0.50000   |   -0.61222   0.00000   0.30611    |
 |    56    0.75000   0.25000   0.75000   |   -0.76527   0.15305   0.15305    |
 |    57    0.75000   0.50000   0.00000   |   -0.15305  -0.15305   0.76527    |
 |    58    0.75000   0.50000   0.25000   |   -0.30611   0.00000   0.61222    |
 |    59    0.75000   0.50000   0.50000   |   -0.45916   0.15305   0.45916    |
 |    60    0.75000   0.50000   0.75000   |   -0.61222   0.30611   0.30611    |
 |    61    0.75000   0.75000   0.00000   |    0.00000   0.00000   0.91833    |
 |    62    0.75000   0.75000   0.25000   |   -0.15305   0.15305   0.76527    |
 |    63    0.75000   0.75000   0.50000   |   -0.30611   0.30611   0.61222    |
 |    64    0.75000   0.75000   0.75000   |   -0.45916   0.45916   0.45916    |
 *----------------------------------------------------------------------------*
  
  
 *---------------------------------- MAIN ------------------------------------*
 |  Number of Wannier Functions               :                20             |
 |  Number of Objective Wannier Functions     :                20             |
 |  Number of input Bloch states              :                20             |
 |  Output verbosity (1=low, 5=high)          :                 2             |
 |  Timing Level (1=low, 5=high)              :                 1             |
 |  Optimisation (0=memory, 3=speed)          :                 3             |
 |  Length Unit                               :              Bohr             |
 |  Post-processing setup (write *.nnkp)      :                 F             |
 |  Using Gamma-only branch of algorithms     :                 F             |
 *----------------------------------------------------------------------------*
 *------------------------------- WANNIERISE ---------------------------------*
 |  Total number of iterations                :                50             |
 |  Number of CG steps before reset           :                 5             |
 |  Trial step length for line search         :             2.000             |
 |  Convergence tolerence                     :         0.100E-09             |
 |  Convergence window                        :                -1             |
 |  Iterations between writing output         :                 1             |
 |  Iterations between backing up to disk     :               100             |
 |  Write r^2_nm to file                      :                 F             |
 |  Write xyz WF centres to file              :                 T             |
 |  Write on-site energies <0n|H|0n> to file  :                 F             |
 |  Use guiding centre to control phases      :                 F             |
 |  Use phases for initial projections        :                 F             |
 *----------------------------------------------------------------------------*
 Time to read parameters        0.005 (sec)

 *---------------------------------- K-MESH ----------------------------------*
 +----------------------------------------------------------------------------+
 |                    Distance to Nearest-Neighbour Shells                    |
 |                    ------------------------------------                    |
 |          Shell             Distance (Bohr^-1)         Multiplicity         |
 |          -----             ------------------         ------------         |
 |             1                   0.265098                      8            |
 |             2                   0.306109                      6            |
 |             3                   0.432903                     12            |
 |             4                   0.507624                     24            |
 |             5                   0.530196                      8            |
 |             6                   0.612217                      6            |
 |             7                   0.667148                     24            |
 |             8                   0.684480                     24            |
 |             9                   0.749810                     24            |
 |            10                   0.795293                     32            |
 |            11                   0.865806                     12            |
 |            12                   0.905481                     48            |
 |            13                   0.918326                     30            |
 |            14                   0.968000                     24            |
 |            15                   1.003644                     24            |
 |            16                   1.015247                     24            |
 |            17                   1.060391                      8            |
 |            18                   1.093026                     48            |
 |            19                   1.103690                     24            |
 |            20                   1.145354                     48            |
 |            21                   1.175632                     72            |
 |            22                   1.224434                      6            |
 |            23                   1.252803                     24            |
 |            24                   1.262118                     48            |
 |            25                   1.298709                     36            |
 |            26                   1.325489                     56            |
 |            27                   1.334296                     24            |
 |            28                   1.368959                     24            |
 |            29                   1.394391                     72            |
 |            30                   1.402766                     48            |
 |            31                   1.435777                     24            |
 |            32                   1.460045                     48            |
 |            33                   1.499620                     24            |
 |            34                   1.522871                     72            |
 |            35                   1.530543                     30            |
 |            36                   1.560854                     72            |
 +----------------------------------------------------------------------------+
 | The b-vectors are chosen automatically                                     |
 | Shell:  1 w_b    5.3360380     (Bohr^2)                                    |
 | The following shells are used:   1                                         |
 +----------------------------------------------------------------------------+
 |                        Shell   # Nearest-Neighbours                        |
 |                        -----   --------------------                        |
 |                          1               8                                 |
 +----------------------------------------------------------------------------+
 | Completeness relation is fully satisfied [Eq. (B1), PRB 56, 12847 (1997)]  |
 +----------------------------------------------------------------------------+
 |                 b_k Vectors (Bohr^-1) and Weights (Bohr^2)                 |
 |                 ------------------------------------------                 |
 |            No.         b_k(x)      b_k(y)      b_k(z)        w_b           |
 |            ---        --------------------------------     --------        |
 |             1        -0.153054    0.153054   -0.153054     5.336038        |
 |             2         0.153054    0.153054    0.153054     5.336038        |
 |             3        -0.153054   -0.153054    0.153054     5.336038        |
 |             4        -0.153054    0.153054    0.153054     5.336038        |
 |             5         0.153054   -0.153054    0.153054     5.336038        |
 |             6        -0.153054   -0.153054   -0.153054     5.336038        |
 |             7         0.153054    0.153054   -0.153054     5.336038        |
 |             8         0.153054   -0.153054   -0.153054     5.336038        |
 +----------------------------------------------------------------------------+
 |                           b_k Directions (Bohr^-1)                         |
 |                           ------------------------                         |
 |            No.           x           y           z                         |
 |            ---        --------------------------------                     |
 |             1        -0.153054    0.153054   -0.153054                     |
 |             2         0.153054    0.153054    0.153054                     |
 |             3        -0.153054   -0.153054    0.153054                     |
 |             4        -0.153054    0.153054    0.153054                     |
 +----------------------------------------------------------------------------+
  
 Time to get kmesh              0.020 (sec)
 *============================================================================*
 |                              MEMORY ESTIMATE                               |
 |         Maximum RAM allocated during each phase of the calculation         |
 *============================================================================*
 |                            Wannierise:            8.28 Mb                  |
 |                                                                            |
 |   N.B. by setting optimisation=0 memory usage will be reduced to:          |
 |                            Wannierise:            5.15 Mb                  |
 |   However, this will result in more i/o and slow down the calculation      |
 |                          plot_wannier:            8.28 Mb                  |
 *----------------------------------------------------------------------------*
  
 Starting a new Wannier90 calculation ...


 Reading overlaps from si.mmn    :  Created on  4Nov2021 at  9:28:59
 Before bloch phase            (0.93993164657299999,-0.32490530497199999)

 Reading projections from si.amn :  Created on  4Nov2021 at  9:28:57
 u 111            (0.79812261755199998,-0.12620632423700001)
 u 121            (0.71016007741999998,-0.11229689845200000)
 After bloch phase            (0.93993164657299999,-0.32490530497199999)
 running overlap_project
 end of overlap read            (0.74373708637687630,-0.51332964686637972)
 right after overlap read            (0.74373708637687630,-0.51332964686637972)

 Time to read overlaps          0.210 (sec)

 Writing checkpoint file si.chk... done

 at the start of wannierize            (0.74373708637687630,-0.51332964686637972)

 *------------------------------- WANNIERISE ---------------------------------*
 +--------------------------------------------------------------------+<-- CONV
 | Iter  Delta Spread     RMS Gradient      Spread (Bohr^2)     Time  |<-- CONV
 +--------------------------------------------------------------------+<-- CONV

 ------------------------------------------------------------------------------
            (0.74373708637687630,-0.51332964686637972)
 Initial State
  WF centre and spread    1  (  3.722763, -3.979944, -1.128873 )   114.40042638
  WF centre and spread    2  ( -8.171005,  4.800570,  3.050753 )    17.62154623
  WF centre and spread    3  (  2.188139, -3.732716, -3.350875 )   111.48897554
  WF centre and spread    4  ( -0.858152,  1.446679,  0.933182 )     7.13766739
  WF centre and spread    5  ( -4.977871,  4.919197,  8.660193 )     9.10951650
  WF centre and spread    6  ( -5.135015,  3.758557,  3.061435 )    11.28943692
  WF centre and spread    7  ( -4.969229,  6.127119,  6.243594 )    43.43535240
  WF centre and spread    8  (  2.461054, -2.589084, -1.161595 )   115.17373311
  WF centre and spread    9  ( -6.607049,  4.560226,  3.918904 )    38.37672930
  WF centre and spread   10  ( -6.496501,  3.656601,  3.153647 )    28.22920885
  WF centre and spread   11  ( -3.098164,  3.877621,  6.208929 )    19.39019349
  WF centre and spread   12  ( -2.189819,  4.623111,  4.465573 )    15.33751025
  WF centre and spread   13  ( -4.414809,  7.015443,  2.843267 )     7.55914758
  WF centre and spread   14  ( -4.167560,  5.570417,  5.354491 )    23.75583354
  WF centre and spread   15  ( -3.734557,  2.782145,  1.566453 )    13.50379628
  WF centre and spread   16  ( -0.316053,  4.036227,  5.146301 )     7.35194466
  WF centre and spread   17  ( -4.508193,  4.345086,  6.421521 )    38.88994143
  WF centre and spread   18  ( -2.336621,  1.888568,  4.068324 )    11.83431740
  WF centre and spread   19  ( -8.562327,  4.975176,  5.114504 )     7.29833521
  WF centre and spread   20  ( -6.226689,  3.388390,  6.399508 )    21.97592702
  Sum of centres and spreads (-68.397657, 61.469388, 70.969236 )   663.15953946

      0     0.663E+03     0.0000000000      663.1595394642       0.00  <-- CONV
        O_D=    385.4728521 O_OD=    185.1568337 O_TOT=    663.1595395 <-- SPRD
 ------------------------------------------------------------------------------
 Cycle:      1
 internal_new_u_and_m called.
 internal_new_u_and_m called.
  WF centre and spread    1  (  3.731871, -3.992129, -1.121297 )   113.39180852
  WF centre and spread    2  ( -8.168104,  4.766564,  3.044629 )    17.23589922
  WF centre and spread    3  (  2.184885, -3.742757, -3.359487 )   111.10434115
  WF centre and spread    4  ( -0.831209,  1.416246,  0.923355 )     6.73603473
  WF centre and spread    5  ( -4.980054,  4.912328,  8.676855 )     8.63868383
  WF centre and spread    6  ( -5.143496,  3.756276,  3.032127 )    11.01308142
  WF centre and spread    7  ( -4.999970,  6.146067,  6.250202 )    34.73352349
  WF centre and spread    8  (  2.438964, -2.590353, -1.148373 )   114.20988125
  WF centre and spread    9  ( -6.722558,  4.683918,  4.017635 )    33.92523050
  WF centre and spread   10  ( -6.577439,  3.669761,  3.178847 )    25.54921969
  WF centre and spread   11  ( -3.058123,  3.843421,  6.221920 )    18.27051285
  WF centre and spread   12  ( -2.146441,  4.620792,  4.465364 )    14.59038501
  WF centre and spread   13  ( -4.400697,  7.036616,  2.838641 )     7.38362330
  WF centre and spread   14  ( -4.180832,  5.604268,  5.360868 )    22.94799740
  WF centre and spread   15  ( -3.729122,  2.797311,  1.551885 )    13.19049238
  WF centre and spread   16  ( -0.312955,  3.992182,  5.158667 )     6.90331064
  WF centre and spread   17  ( -4.408455,  4.326893,  6.553399 )    33.75689466
  WF centre and spread   18  ( -2.346851,  1.876224,  4.104077 )    11.40316687
  WF centre and spread   19  ( -8.574028,  4.979382,  5.119792 )     6.96538717
  WF centre and spread   20  ( -6.268189,  3.332181,  6.405554 )    20.75765268
  Sum of centres and spreads (-68.492802, 61.435191, 71.274660 )   632.70712675

      1    -0.305E+02     8.9754458614      632.7071267461       0.02  <-- CONV
        O_D=    364.8369131 O_OD=    175.3403600 O_TOT=    632.7071267 <-- SPRD
 Delta: O_D= -0.2063594E+02 O_OD= -0.9816474E+01 O_TOT= -0.3045241E+02 <-- DLTA
 ------------------------------------------------------------------------------
 Cycle:      2
 internal_new_u_and_m called.
 internal_new_u_and_m called.
  WF centre and spread    1  (  3.751806, -4.009504, -1.111808 )   112.47223158
  WF centre and spread    2  ( -8.147761,  4.700866,  3.010313 )    16.78628356
  WF centre and spread    3  (  2.181719, -3.761451, -3.370520 )   110.82912725
  WF centre and spread    4  ( -0.791933,  1.374412,  0.910652 )     6.33815391
  WF centre and spread    5  ( -4.981439,  4.898348,  8.699190 )     8.02510448
  WF centre and spread    6  ( -5.162481,  3.750342,  2.985458 )    10.76165756
  WF centre and spread    7  ( -3.594865,  4.728990,  4.804044 )    74.91976920
  WF centre and spread    8  (  2.405912, -2.592836, -1.128088 )   113.44784541
  WF centre and spread    9  ( -6.818396,  4.705559,  3.927615 )    31.38393657
  WF centre and spread   10  ( -6.533811,  3.642143,  3.104675 )    23.64592007
  WF centre and spread   11  ( -2.993769,  3.788098,  6.229474 )    16.65767779
  WF centre and spread   12  ( -2.087725,  4.621152,  4.459225 )    13.70713161
  WF centre and spread   13  ( -4.378585,  7.061741,  2.826865 )     7.28367404
  WF centre and spread   14  ( -4.187014,  5.650960,  5.334615 )    22.17787060
  WF centre and spread   15  ( -3.728814,  2.822955,  1.530372 )    13.00176169
  WF centre and spread   16  ( -0.304052,  3.927344,  5.175460 )     6.41728915
  WF centre and spread   17  ( -4.317460,  4.325274,  6.555093 )    30.69481504
  WF centre and spread   18  ( -2.357603,  1.855857,  4.152152 )    11.16822746
  WF centre and spread   19  ( -8.593858,  4.985749,  5.123656 )     6.66061666
  WF centre and spread   20  ( -6.277472,  3.281837,  6.402536 )    19.21231309
  Sum of centres and spreads (-66.917602, 59.757834, 69.620981 )   655.59140671

      2     0.229E+02     5.3259140907      655.5914067095       0.05  <-- CONV
        O_D=    398.8464587 O_OD=    164.2150943 O_TOT=    655.5914067 <-- SPRD
 Delta: O_D=  0.3400955E+02 O_OD= -0.1112527E+02 O_TOT=  0.2288428E+02 <-- DLTA
 ------------------------------------------------------------------------------
 Cycle:      3
 internal_new_u_and_m called.
 internal_new_u_and_m called.
  WF centre and spread    1  (  3.786532, -4.031792, -1.094010 )   111.96226939
  WF centre and spread    2  ( -8.107190,  4.589722,  2.925563 )    16.71687857
  WF centre and spread    3  (  2.174351, -3.793910, -3.385066 )   110.82869980
  WF centre and spread    4  ( -0.733911,  1.316351,  0.891702 )     6.27175113
  WF centre and spread    5  ( -4.988466,  4.880566,  8.733017 )     7.51065107
  WF centre and spread    6  ( -5.189204,  3.745346,  2.910814 )    10.78332014
  WF centre and spread    7  ( -3.004969,  4.130376,  4.145523 )    77.51150325
  WF centre and spread    8  (  2.357730, -2.595246, -1.095577 )   113.09791044
  WF centre and spread    9  ( -6.800316,  4.609243,  3.818490 )    33.56395787
  WF centre and spread   10  ( -6.485618,  3.594085,  3.050525 )    21.93084116
  WF centre and spread   11  ( -2.893923,  3.711236,  6.231767 )    15.11945431
  WF centre and spread   12  ( -1.997841,  4.626299,  4.453427 )    13.03774065
  WF centre and spread   13  ( -4.343102,  7.099118,  2.807167 )     7.47252884
  WF centre and spread   14  ( -4.194410,  5.729244,  5.266380 )    21.70705094
  WF centre and spread   15  ( -3.734807,  2.860825,  1.492778 )    13.30438363
  WF centre and spread   16  ( -0.288879,  3.830437,  5.199949 )     6.15890155
  WF centre and spread   17  ( -4.145435,  4.196224,  6.530622 )    28.52412811
  WF centre and spread   18  ( -2.365995,  1.818177,  4.222274 )    11.54547654
  WF centre and spread   19  ( -8.622436,  4.996220,  5.129222 )     6.60102827
  WF centre and spread   20  ( -6.253173,  3.201136,  6.387767 )    18.03196820
  Sum of centres and spreads (-65.831060, 58.513658, 68.622332 )   651.68044386

      3    -0.391E+01     6.4291755308      651.6804438581       0.07  <-- CONV
        O_D=    399.7124762 O_OD=    159.4381139 O_TOT=    651.6804439 <-- SPRD
 Delta: O_D=  0.8660175E+00 O_OD= -0.4776980E+01 O_TOT= -0.3910963E+01 <-- DLTA
 ------------------------------------------------------------------------------
 Cycle:      4
 internal_new_u_and_m called.
 internal_new_u_and_m called.
  WF centre and spread    1  (  3.805790, -4.042736, -1.081995 )   111.84197130
  WF centre and spread    2  ( -8.082012,  4.514457,  2.863048 )    16.80212727
  WF centre and spread    3  (  2.167642, -3.814864, -3.391539 )   110.88698015
  WF centre and spread    4  ( -0.703169,  1.286131,  0.882381 )     6.37346446
  WF centre and spread    5  ( -4.995556,  4.873124,  8.748790 )     7.34619112
  WF centre and spread    6  ( -5.199922,  3.747939,  2.866669 )    10.85393602
  WF centre and spread    7  ( -1.584900,  3.348436,  4.295566 )    83.21407979
  WF centre and spread    8  (  2.332524, -2.596008, -1.079531 )   112.95737975
  WF centre and spread    9  ( -6.846525,  4.666419,  3.881037 )    30.37966516
  WF centre and spread   10  ( -6.465472,  3.562257,  3.042489 )    21.42656397
  WF centre and spread   11  ( -2.839479,  3.668293,  6.227544 )    14.54744676
  WF centre and spread   12  ( -1.945080,  4.630602,  4.452568 )    12.84262653
  WF centre and spread   13  ( -4.320354,  7.119010,  2.793708 )     7.64614778
  WF centre and spread   14  ( -4.200067,  5.778741,  5.215174 )    21.65539982
  WF centre and spread   15  ( -3.739617,  2.876966,  1.469376 )    13.63811349
  WF centre and spread   16  ( -0.276921,  3.775801,  5.212810 )     6.18895717
  WF centre and spread   17  ( -3.981099,  4.051181,  6.518877 )    27.18510259
  WF centre and spread   18  ( -2.366323,  1.789486,  4.257619 )    11.90445401
  WF centre and spread   19  ( -8.637577,  5.002378,  5.132269 )     6.67788903
  WF centre and spread   20  ( -6.218229,  3.152661,  6.373361 )    17.76414287
  Sum of centres and spreads (-64.096346, 57.390275, 68.680221 )   652.13263906

      4     0.452E+00     6.2977905843      652.1326390601       0.09  <-- CONV
        O_D=    398.8240914 O_OD=    160.7786940 O_TOT=    652.1326391 <-- SPRD
 Delta: O_D= -0.8883849E+00 O_OD=  0.1340580E+01 O_TOT=  0.4521952E+00 <-- DLTA
 ------------------------------------------------------------------------------
 Cycle:      5
 internal_new_u_and_m called.
 internal_new_u_and_m called.
  WF centre and spread    1  (  3.809032, -4.044620, -1.079810 )   111.79041129
  WF centre and spread    2  ( -8.077685,  4.498735,  2.850751 )    16.78690356
  WF centre and spread    3  (  2.166287, -3.818740, -3.392273 )   110.88043768
  WF centre and spread    4  ( -0.698055,  1.281139,  0.881122 )     6.36802735
  WF centre and spread    5  ( -4.997129,  4.872200,  8.751206 )     7.30597396
  WF centre and spread    6  ( -5.201586,  3.748901,  2.858945 )    10.83988027
  WF centre and spread    7  ( -1.428468,  3.511585,  4.132809 )    80.92288273
  WF centre and spread    8  (  2.328342, -2.596417, -1.077502 )   112.89972925
  WF centre and spread    9  ( -6.849737,  4.674876,  3.880488 )    29.89155697
  WF centre and spread   10  ( -6.462145,  3.555852,  3.041286 )    21.28345165
  WF centre and spread   11  ( -2.830006,  3.660063,  6.226526 )    14.41948248
  WF centre and spread   12  ( -1.935765,  4.631611,  4.452468 )    12.78162666
  WF centre and spread   13  ( -4.316271,  7.122237,  2.791102 )     7.66178579
  WF centre and spread   14  ( -4.201271,  5.788526,  5.205599 )    21.63014905
  WF centre and spread   15  ( -3.740765,  2.879452,  1.465143 )    13.67307763
  WF centre and spread   16  ( -0.274429,  3.766165,  5.215244 )     6.18183232
  WF centre and spread   17  ( -3.963811,  4.033650,  6.533917 )    26.79790615
  WF centre and spread   18  ( -2.366367,  1.782723,  4.262749 )    11.93572274
  WF centre and spread   19  ( -8.640138,  5.003552,  5.132675 )     6.67795801
  WF centre and spread   20  ( -6.211120,  3.144359,  6.370320 )    17.68051990
  Sum of centres and spreads (-63.891086, 57.495848, 68.502768 )   648.40931545

      5    -0.372E+01     6.5889868602      648.4093154453       0.11  <-- CONV
        O_D=    395.2678043 O_OD=    160.6116575 O_TOT=    648.4093154 <-- SPRD
 Delta: O_D= -0.3556287E+01 O_OD= -0.1670365E+00 O_TOT= -0.3723324E+01 <-- DLTA
 ------------------------------------------------------------------------------
 Cycle:      6
 internal_new_u_and_m called.
 internal_new_u_and_m called.
  WF centre and spread    1  (  3.825011, -4.053792, -1.068028 )   111.39661318
  WF centre and spread    2  ( -8.056671,  4.410004,  2.784862 )    16.57681963
  WF centre and spread    3  (  2.159421, -3.838923, -3.393860 )   110.80225289
  WF centre and spread    4  ( -0.673872,  1.258109,  0.876522 )     6.24060803
  WF centre and spread    5  ( -5.006182,  4.869527,  8.761170 )     7.06036711
  WF centre and spread    6  ( -5.209098,  3.756150,  2.820704 )    10.68461187
  WF centre and spread    7  ( -1.127974,  3.202237,  3.796007 )    72.75232741
  WF centre and spread    8  (  2.309331, -2.599868, -1.070355 )   112.51138431
  WF centre and spread    9  ( -6.851572,  4.711973,  3.816602 )    27.72913829
  WF centre and spread   10  ( -6.445970,  3.519987,  3.038618 )    20.37538635
  WF centre and spread   11  ( -2.782548,  3.615880,  6.220784 )    13.67327105
  WF centre and spread   12  ( -1.890102,  4.637053,  4.452442 )    12.35485192
  WF centre and spread   13  ( -4.295178,  7.137282,  2.777020 )     7.69293451
  WF centre and spread   14  ( -4.210996,  5.844054,  5.154996 )    21.49482609
  WF centre and spread   15  ( -3.749329,  2.891600,  1.445266 )    13.75550646
  WF centre and spread   16  ( -0.259871,  3.718864,  5.228414 )     6.08889307
  WF centre and spread   17  ( -3.897321,  3.946566,  6.626028 )    25.51992704
  WF centre and spread   18  ( -2.367564,  1.740469,  4.283034 )    11.97862965
  WF centre and spread   19  ( -8.652045,  5.009538,  5.134115 )     6.62737351
  WF centre and spread   20  ( -6.173222,  3.102408,  6.352448 )    17.11688289
  Sum of centres and spreads (-63.355753, 56.879118, 68.036789 )   632.43260527

      6    -0.160E+02     6.5219947441      632.4326052668       0.13  <-- CONV
        O_D=    381.6694853 O_OD=    158.2332663 O_TOT=    632.4326053 <-- SPRD
 Delta: O_D= -0.1359832E+02 O_OD= -0.2378391E+01 O_TOT= -0.1597671E+02 <-- DLTA
 ------------------------------------------------------------------------------
 Cycle:      7
 internal_new_u_and_m called.
 internal_new_u_and_m called.
  WF centre and spread    1  (  3.826439, -4.053822, -1.067528 )   111.13696839
  WF centre and spread    2  ( -8.046680,  4.382624,  2.766945 )    16.13215154
  WF centre and spread    3  (  2.159899, -3.841846, -3.389915 )   110.69286788
  WF centre and spread    4  ( -0.674190,  1.257137,  0.878935 )     5.95845241
  WF centre and spread    5  ( -5.006681,  4.873392,  8.757232 )     6.85489827
  WF centre and spread    6  ( -5.208629,  3.761202,  2.819974 )    10.39507370
  WF centre and spread    7  ( -1.137037,  3.200402,  3.790178 )    63.57946420
  WF centre and spread    8  (  2.312201, -2.602080, -1.072899 )   112.31308511
  WF centre and spread    9  ( -6.930801,  4.748996,  3.756779 )    25.18437419
  WF centre and spread   10  ( -6.432449,  3.508505,  3.032937 )    19.68885806
  WF centre and spread   11  ( -2.767976,  3.598457,  6.211700 )    13.02078032
  WF centre and spread   12  ( -1.887735,  4.635178,  4.451087 )    11.98956009
  WF centre and spread   13  ( -4.292235,  7.141665,  2.771733 )     7.48063980
  WF centre and spread   14  ( -4.214086,  5.856294,  5.145653 )    21.18066024
  WF centre and spread   15  ( -3.754960,  2.891876,  1.446523 )    13.48064940
  WF centre and spread   16  ( -0.255473,  3.713345,  5.230301 )     5.87189491
  WF centre and spread   17  ( -3.839180,  3.899266,  6.581883 )    24.69647044
  WF centre and spread   18  ( -2.369257,  1.725596,  4.274808 )    11.67403092
  WF centre and spread   19  ( -8.651089,  5.008698,  5.131578 )     6.43333135
  WF centre and spread   20  ( -6.166792,  3.105908,  6.350069 )    16.52877337
  Sum of centres and spreads (-63.336709, 56.810792, 67.867973 )   614.29298461

      7    -0.181E+02     6.2963942720      614.2929846106       0.16  <-- CONV
        O_D=    369.7333371 O_OD=    152.0297939 O_TOT=    614.2929846 <-- SPRD
 Delta: O_D= -0.1193615E+02 O_OD= -0.6203472E+01 O_TOT= -0.1813962E+02 <-- DLTA
 ------------------------------------------------------------------------------
 Cycle:      8
 internal_new_u_and_m called.
 internal_new_u_and_m called.
  WF centre and spread    1  (  3.826468, -4.053850, -1.067482 )   111.13263887
  WF centre and spread    2  ( -8.046490,  4.382065,  2.766574 )    16.12518163
  WF centre and spread    3  (  2.159898, -3.841921, -3.389834 )   110.69149835
  WF centre and spread    4  ( -0.674187,  1.257109,  0.878975 )     5.95441383
  WF centre and spread    5  ( -5.006710,  4.873481,  8.757164 )     6.85148830
  WF centre and spread    6  ( -5.208597,  3.761285,  2.819968 )    10.39079727
  WF centre and spread    7  ( -1.137127,  3.200396,  3.790120 )    63.50950805
  WF centre and spread    8  (  2.312215, -2.602140, -1.072923 )   112.31068732
  WF centre and spread    9  ( -6.931586,  4.750061,  3.756534 )    25.13900061
  WF centre and spread   10  ( -6.432183,  3.508264,  3.032955 )    19.67775827
  WF centre and spread   11  ( -2.767747,  3.598168,  6.211574 )    13.01041649
  WF centre and spread   12  ( -1.887665,  4.635184,  4.451045 )    11.98411623
  WF centre and spread   13  ( -4.292181,  7.141749,  2.771642 )     7.47785484
  WF centre and spread   14  ( -4.214187,  5.856603,  5.145515 )    21.17668357
  WF centre and spread   15  ( -3.755086,  2.891885,  1.446534 )    13.47655201
  WF centre and spread   16  ( -0.255401,  3.713230,  5.230337 )     5.86868933
  WF centre and spread   17  ( -3.838009,  3.898362,  6.581517 )    24.68825904
  WF centre and spread   18  ( -2.369267,  1.725289,  4.274668 )    11.66986898
  WF centre and spread   19  ( -8.651075,  5.008685,  5.131538 )     6.43042794
  WF centre and spread   20  ( -6.166670,  3.105987,  6.350019 )    16.52061147
  Sum of centres and spreads (-63.335587, 56.809892, 67.866440 )   614.08645240

      8    -0.207E+00     3.7760411710      614.0864523982       0.18  <-- CONV
        O_D=    369.6124305 O_OD=    151.9441682 O_TOT=    614.0864524 <-- SPRD
 Delta: O_D= -0.1209066E+00 O_OD= -0.8562562E-01 O_TOT= -0.2065322E+00 <-- DLTA
 ------------------------------------------------------------------------------
 Cycle:      9
 internal_new_u_and_m called.
 internal_new_u_and_m called.
  WF centre and spread    1  (  3.826514, -4.053899, -1.067405 )   111.12606830
  WF centre and spread    2  ( -8.046203,  4.381215,  2.766010 )    16.11479817
  WF centre and spread    3  (  2.159896, -3.842038, -3.389713 )   110.68943853
  WF centre and spread    4  ( -0.674179,  1.257065,  0.879033 )     5.94849894
  WF centre and spread    5  ( -5.006758,  4.873619,  8.757063 )     6.84630183
  WF centre and spread    6  ( -5.208545,  3.761407,  2.819959 )    10.38449932
  WF centre and spread    7  ( -1.137252,  3.200398,  3.790041 )    63.41450277
  WF centre and spread    8  (  2.312227, -2.602233, -1.072954 )   112.30705077
  WF centre and spread    9  ( -6.932669,  4.751516,  3.756084 )    25.06940300
  WF centre and spread   10  ( -6.431786,  3.507893,  3.033010 )    19.66062997
  WF centre and spread   11  ( -2.767412,  3.597741,  6.211396 )    12.99484965
  WF centre and spread   12  ( -1.887551,  4.635202,  4.450979 )    11.97607234
  WF centre and spread   13  ( -4.292101,  7.141874,  2.771506 )     7.47379666
  WF centre and spread   14  ( -4.214347,  5.857087,  5.145314 )    21.17084893
  WF centre and spread   15  ( -3.755278,  2.891902,  1.446545 )    13.47042075
  WF centre and spread   16  ( -0.255295,  3.713051,  5.230391 )     5.86390049
  WF centre and spread   17  ( -3.836251,  3.897010,  6.581107 )    24.67488150
  WF centre and spread   18  ( -2.369277,  1.724818,  4.274460 )    11.66377364
  WF centre and spread   19  ( -8.651057,  5.008665,  5.131479 )     6.42610392
  WF centre and spread   20  ( -6.166485,  3.106108,  6.349944 )    16.50855659
  Sum of centres and spreads (-63.333810, 56.808401, 67.864249 )   613.78439606

      9    -0.302E+00     3.7534730305      613.7843960610       0.20  <-- CONV
        O_D=    369.4371053 O_OD=    151.8174371 O_TOT=    613.7843961 <-- SPRD
 Delta: O_D= -0.1753252E+00 O_OD= -0.1267311E+00 O_TOT= -0.3020563E+00 <-- DLTA
 ------------------------------------------------------------------------------
 Cycle:     10
 internal_new_u_and_m called.
 internal_new_u_and_m called.
  WF centre and spread    1  (  3.826690, -4.054100, -1.067091 )   111.10069799
  WF centre and spread    2  ( -8.045104,  4.377942,  2.763837 )    16.07559811
  WF centre and spread    3  (  2.159888, -3.842497, -3.389245 )   110.68176372
  WF centre and spread    4  ( -0.674148,  1.256888,  0.879254 )     5.92636690
  WF centre and spread    5  ( -5.006950,  4.874154,  8.756677 )     6.82664241
  WF centre and spread    6  ( -5.208333,  3.761865,  2.819929 )    10.36087359
  WF centre and spread    7  ( -1.458428,  2.879700,  3.469042 )    66.45818146
  WF centre and spread    8  (  2.312258, -2.602595, -1.073065 )   112.29333489
  WF centre and spread    9  ( -6.936713,  4.756964,  3.754346 )    24.80612802
  WF centre and spread   10  ( -6.430268,  3.506454,  3.033267 )    19.59535106
  WF centre and spread   11  ( -2.766155,  3.596120,  6.210737 )    12.93587345
  WF centre and spread   12  ( -1.887107,  4.635289,  4.450717 )    11.94581813
  WF centre and spread   13  ( -4.291794,  7.142354,  2.770986 )     7.45869591
  WF centre and spread   14  ( -4.214981,  5.858980,  5.144558 )    21.14920004
  WF centre and spread   15  ( -3.756028,  2.891973,  1.446580 )    13.44738054
  WF centre and spread   16  ( -0.254894,  3.712361,  5.230599 )     5.84590986
  WF centre and spread   17  ( -3.829488,  3.891801,  6.579739 )    24.62325121
  WF centre and spread   18  ( -2.369309,  1.723000,  4.273668 )    11.64112327
  WF centre and spread   19  ( -8.650990,  5.008589,  5.131254 )     6.40987517
  WF centre and spread   20  ( -6.165785,  3.106586,  6.349657 )    16.46336473
  Sum of centres and spreads (-63.647640, 56.481828, 67.535447 )   616.04543044

     10     0.226E+01     3.7183457208      616.0454304368       0.22  <-- CONV
        O_D=    372.1716945 O_OD=    151.3438823 O_TOT=    616.0454304 <-- SPRD
 Delta: O_D=  0.2734589E+01 O_OD= -0.4735548E+00 O_TOT=  0.2261034E+01 <-- DLTA
 ------------------------------------------------------------------------------
 Cycle:     11
 internal_new_u_and_m called.
  WF centre and spread    1  (  3.827252, -4.054739, -1.066069 )   111.02245022
  WF centre and spread    2  ( -8.041870,  4.367982,  2.757266 )    15.96177549
  WF centre and spread    3  (  2.159876, -3.843931, -3.387803 )   110.66068909
  WF centre and spread    4  ( -0.674072,  1.256339,  0.879913 )     5.86248369
  WF centre and spread    5  ( -5.007529,  4.875808,  8.755487 )     6.77016860
  WF centre and spread    6  ( -5.207645,  3.763227,  2.819872 )    10.29284720
  WF centre and spread    7  ( -1.299422,  3.039947,  3.628680 )    63.19313105
  WF centre and spread    8  (  2.312339, -2.603716, -1.073364 )   112.25447810
  WF centre and spread    9  ( -6.948007,  4.772966,  3.748934 )    24.10677776
  WF centre and spread   10  ( -6.425773,  3.502035,  3.034156 )    19.40829941
  WF centre and spread   11  ( -2.762536,  3.591213,  6.208834 )    12.76406344
  WF centre and spread   12  ( -1.885802,  4.635567,  4.449947 )    11.85824807
  WF centre and spread   13  ( -4.290873,  7.143848,  2.769434 )     7.41593386
  WF centre and spread   14  ( -4.217014,  5.864837,  5.142346 )    21.08894437
  WF centre and spread   15  ( -3.758388,  2.892164,  1.446754 )    13.38167799
  WF centre and spread   16  ( -0.253678,  3.710292,  5.231227 )     5.79466552
  WF centre and spread   17  ( -3.808615,  3.875625,  6.575623 )    24.47898591
  WF centre and spread   18  ( -2.369446,  1.717482,  4.271238 )    11.57742206
  WF centre and spread   19  ( -8.650779,  5.008363,  5.130568 )     6.36368954
  WF centre and spread   20  ( -6.163750,  3.108152,  6.348807 )    16.33365326
  Sum of centres and spreads (-63.465733, 56.623460, 67.671849 )   610.59038464

     11    -0.546E+01     4.4944785238      610.5903846435       0.24  <-- CONV
        O_D=    368.0538090 O_OD=    150.0067220 O_TOT=    610.5903846 <-- SPRD
 Delta: O_D= -0.4117885E+01 O_OD= -0.1337160E+01 O_TOT= -0.5455046E+01 <-- DLTA
 ------------------------------------------------------------------------------
 Cycle:     12
 internal_new_u_and_m called.
 internal_new_u_and_m called.
  WF centre and spread    1  (  3.832334, -4.060673, -1.056657 )   110.37945938
  WF centre and spread    2  ( -8.021857,  4.298893,  2.711899 )    15.35565955
  WF centre and spread    3  (  2.160123, -3.854583, -3.376991 )   110.61118818
  WF centre and spread    4  ( -0.674389,  1.252156,  0.884493 )     5.54126365
  WF centre and spread    5  ( -5.010757,  4.888487,  8.745424 )     6.51018892
  WF centre and spread    6  ( -5.201768,  3.772713,  2.820710 )     9.95299828
  WF centre and spread    7  ( -1.305960,  3.034189,  3.629892 )    56.11671952
  WF centre and spread    8  (  2.313301, -2.611851, -1.074702 )   112.08489990
  WF centre and spread    9  ( -6.820227,  4.689578,  3.532184 )    27.38675760
  WF centre and spread   10  ( -6.397999,  3.473040,  3.045019 )    18.61027558
  WF centre and spread   11  ( -2.744025,  3.557632,  6.198404 )    11.85549440
  WF centre and spread   12  ( -1.878219,  4.637769,  4.445740 )    11.40098207
  WF centre and spread   13  ( -4.284531,  7.155512,  2.759094 )     7.22752432
  WF centre and spread   14  ( -4.234644,  5.908056,  5.130587 )    20.88509955
  WF centre and spread   15  ( -3.778537,  2.892692,  1.451042 )    13.09638864
  WF centre and spread   16  ( -0.245099,  3.696783,  5.235397 )     5.57455775
  WF centre and spread   17  ( -3.647254,  3.748941,  6.540861 )    24.20011579
  WF centre and spread   18  ( -2.372200,  1.679562,  4.253179 )    11.33341233
  WF centre and spread   19  ( -8.648600,  5.006892,  5.125599 )     6.16061177
  WF centre and spread   20  ( -6.152607,  3.126055,  6.343072 )    15.72620689
  Sum of centres and spreads (-63.112916, 56.291844, 67.344246 )   600.00980409

     12    -0.106E+02     4.5081382828      600.0098040854       0.26  <-- CONV
        O_D=    362.4981310 O_OD=    144.9818194 O_TOT=    600.0098041 <-- SPRD
 Delta: O_D= -0.5555678E+01 O_OD= -0.5024903E+01 O_TOT= -0.1058058E+02 <-- DLTA
 ------------------------------------------------------------------------------
 Cycle:     13
 internal_new_u_and_m called.
 internal_new_u_and_m called.
  WF centre and spread    1  (  3.834300, -4.064083, -1.052754 )   110.06586061
  WF centre and spread    2  ( -8.018866,  4.288566,  2.700526 )    15.26446592
  WF centre and spread    3  (  2.161232, -3.856893, -3.375665 )   110.59949697
  WF centre and spread    4  ( -0.674220,  1.249874,  0.884801 )     5.50906244
  WF centre and spread    5  ( -5.010764,  4.890734,  8.744407 )     6.46851660
  WF centre and spread    6  ( -5.200579,  3.773860,  2.819740 )     9.92283878
  WF centre and spread    7  ( -1.304457,  3.036312,  3.632213 )    54.97197924
  WF centre and spread    8  (  2.313886, -2.611969, -1.072385 )   112.00337527
  WF centre and spread    9  ( -6.883300,  4.719665,  3.586023 )    25.18870340
  WF centre and spread   10  ( -6.400711,  3.468380,  3.054882 )    18.50703890
  WF centre and spread   11  ( -2.742333,  3.550364,  6.197398 )    11.68582857
  WF centre and spread   12  ( -1.875896,  4.636281,  4.444912 )    11.33594638
  WF centre and spread   13  ( -4.282973,  7.160869,  2.757556 )     7.20755535
  WF centre and spread   14  ( -4.237961,  5.914288,  5.128926 )    20.87852584
  WF centre and spread   15  ( -3.780609,  2.892969,  1.450868 )    13.07628282
  WF centre and spread   16  ( -0.243021,  3.693010,  5.236646 )     5.56219531
  WF centre and spread   17  ( -3.612783,  3.757833,  6.525634 )    23.91009398
  WF centre and spread   18  ( -2.373529,  1.674702,  4.250620 )    11.31812577
  WF centre and spread   19  ( -8.648326,  5.006186,  5.125228 )     6.14698306
  WF centre and spread   20  ( -6.150991,  3.127417,  6.343324 )    15.66127449
  Sum of centres and spreads (-63.131902, 56.308364, 67.382901 )   595.28414970

     13    -0.473E+01     5.4842215883      595.2841496987       0.29  <-- CONV
        O_D=    357.8785551 O_OD=    144.8757410 O_TOT=    595.2841497 <-- SPRD
 Delta: O_D= -0.4619576E+01 O_OD= -0.1060784E+00 O_TOT= -0.4725654E+01 <-- DLTA
 ------------------------------------------------------------------------------
 Cycle:     14
 internal_new_u_and_m called.
 internal_new_u_and_m called.
  WF centre and spread    1  (  3.841402, -4.075891, -1.039422 )   108.83981046
  WF centre and spread    2  ( -8.010987,  4.249975,  2.671420 )    15.04698468
  WF centre and spread    3  (  2.163951, -3.863574, -3.371793 )   110.58549896
  WF centre and spread    4  ( -0.673550,  1.243783,  0.885470 )     5.43297039
  WF centre and spread    5  ( -5.012406,  4.896875,  8.740614 )     6.37386793
  WF centre and spread    6  ( -5.196718,  3.775289,  2.819239 )     9.84704157
  WF centre and spread    7  ( -0.979949,  3.359648,  3.316031 )    53.51064025
  WF centre and spread    8  (  2.311798, -2.617255, -1.070939 )   111.76571371
  WF centre and spread    9  ( -6.928406,  4.741371,  3.594661 )    24.40571714
  WF centre and spread   10  ( -6.398146,  3.457514,  3.060407 )    18.18408515
  WF centre and spread   11  ( -2.733257,  3.530897,  6.193720 )    11.39261295
  WF centre and spread   12  ( -1.870664,  4.636233,  4.440592 )    11.19039862
  WF centre and spread   13  ( -4.278766,  7.168646,  2.753093 )     7.17144337
  WF centre and spread   14  ( -4.245912,  5.938471,  5.120876 )    20.87330152
  WF centre and spread   15  ( -3.788947,  2.892385,  1.450310 )    13.03249153
  WF centre and spread   16  ( -0.238320,  3.683047,  5.238993 )     5.53400431
  WF centre and spread   17  ( -3.616813,  3.774146,  6.555562 )    23.42374790
  WF centre and spread   18  ( -2.376072,  1.657842,  4.242291 )    11.30484300
  WF centre and spread   19  ( -8.648963,  5.004531,  5.123100 )     6.12478102
  WF centre and spread   20  ( -6.149823,  3.135154,  6.344162 )    15.55432558
  Sum of centres and spreads (-62.830549, 56.589087, 67.068387 )   589.59428006

     14    -0.569E+01     3.1463474289      589.5942800551       0.31  <-- CONV
        O_D=    351.9679816 O_OD=    145.0964447 O_TOT=    589.5942801 <-- SPRD
 Delta: O_D= -0.5910573E+01 O_OD=  0.2207038E+00 O_TOT= -0.5689870E+01 <-- DLTA
 ------------------------------------------------------------------------------
 Cycle:     15
 internal_new_u_and_m called.
 internal_new_u_and_m called.
  WF centre and spread    1  (  3.787472, -4.117563, -1.009790 )   100.74749416
  WF centre and spread    2  ( -7.992700,  4.131324,  2.585349 )    14.49959264
  WF centre and spread    3  (  2.170677, -3.886277, -3.357214 )   110.62030543
  WF centre and spread    4  ( -0.672410,  1.221908,  0.885643 )     5.29917641
  WF centre and spread    5  ( -5.020128,  4.919826,  8.725931 )     6.17519798
  WF centre and spread    6  ( -5.181656,  3.779568,  2.821547 )     9.76491343
  WF centre and spread    7  ( -0.972905,  3.368073,  3.335877 )    53.04324526
  WF centre and spread    8  (  2.308652, -2.636889, -1.071094 )   110.72960690
  WF centre and spread    9  ( -6.732519,  4.480895,  3.248866 )    34.69235196
  WF centre and spread   10  ( -6.393468,  3.423977,  3.073170 )    17.93872337
  WF centre and spread   11  ( -2.711385,  3.471492,  6.182426 )    10.67094536
  WF centre and spread   12  ( -1.854542,  4.634607,  4.426351 )    10.85968356
  WF centre and spread   13  ( -4.263940,  7.194840,  2.739599 )     7.20282772
  WF centre and spread   14  ( -4.265583,  6.022491,  5.085116 )    21.17899140
  WF centre and spread   15  ( -3.822810,  2.892729,  1.448372 )    13.07672322
  WF centre and spread   16  ( -0.224279,  3.652250,  5.244794 )     5.54941249
  WF centre and spread   17  ( -3.439042,  3.714018,  6.444265 )    23.10197692
  WF centre and spread   18  ( -2.383342,  1.602857,  4.214813 )    11.51933392
  WF centre and spread   19  ( -8.651278,  4.998051,  5.112688 )     6.16921581
  WF centre and spread   20  ( -6.154151,  3.169285,  6.353672 )    15.32580116
  Sum of centres and spreads (-62.469337, 56.037459, 66.490382 )   588.16551911

     15    -0.143E+01     3.6273483388      588.1655191063       0.33  <-- CONV
        O_D=    344.0273526 O_OD=    151.6083128 O_TOT=    588.1655191 <-- SPRD
 Delta: O_D= -0.7940629E+01 O_OD=  0.6511868E+01 O_TOT= -0.1428761E+01 <-- DLTA
 ------------------------------------------------------------------------------
 Cycle:     16
 internal_new_u_and_m called.
 internal_new_u_and_m called.
  WF centre and spread    1  (  3.738789, -4.132060, -1.033165 )    98.15298429
  WF centre and spread    2  ( -7.990702,  4.111776,  2.576952 )    14.35574647
  WF centre and spread    3  (  2.171553, -3.889479, -3.355942 )   110.56493405
  WF centre and spread    4  ( -0.673334,  1.218558,  0.885555 )     5.29009425
  WF centre and spread    5  ( -5.021370,  4.924143,  8.722324 )     6.10424757
  WF centre and spread    6  ( -5.180427,  3.782208,  2.823386 )     9.76026660
  WF centre and spread    7  ( -0.973583,  3.362672,  3.345208 )    50.13457993
  WF centre and spread    8  (  2.307187, -2.645964, -1.076576 )   110.25202474
  WF centre and spread    9  ( -6.695860,  4.594475,  3.227904 )    29.60910772
  WF centre and spread   10  ( -6.404797,  3.420149,  3.081530 )    17.67352818
  WF centre and spread   11  ( -2.709338,  3.464479,  6.181794 )    10.50041919
  WF centre and spread   12  ( -1.854235,  4.633692,  4.424076 )    10.80953059
  WF centre and spread   13  ( -4.261987,  7.197158,  2.738663 )     7.16718863
  WF centre and spread   14  ( -4.263820,  6.035740,  5.078874 )    21.23333154
  WF centre and spread   15  ( -3.828202,  2.890414,  1.449094 )    13.07581563
  WF centre and spread   16  ( -0.223784,  3.649087,  5.244859 )     5.53410282
  WF centre and spread   17  ( -3.418627,  3.705152,  6.450038 )    22.74257300
  WF centre and spread   18  ( -2.380883,  1.599689,  4.211250 )    11.50402124
  WF centre and spread   19  ( -8.652759,  4.996482,  5.110316 )     6.16576596
  WF centre and spread   20  ( -6.160614,  3.175238,  6.360645 )    15.23733149
  Sum of centres and spreads (-62.476792, 56.093609, 66.446785 )   575.86759389

     16    -0.123E+02     6.4975466604      575.8675938860       0.37  <-- CONV
        O_D=    331.0710292 O_OD=    152.2667110 O_TOT=    575.8675939 <-- SPRD
 Delta: O_D= -0.1295632E+02 O_OD=  0.6583982E+00 O_TOT= -0.1229793E+02 <-- DLTA
 ------------------------------------------------------------------------------
 Cycle:     17
 internal_new_u_and_m called.
 internal_new_u_and_m called.
  WF centre and spread    1  (  3.168468, -3.818803, -0.794806 )    88.95518984
  WF centre and spread    2  ( -7.973544,  4.038651,  2.540008 )    13.94518307
  WF centre and spread    3  (  2.174173, -3.898606, -3.347571 )   110.58724205
  WF centre and spread    4  ( -0.677170,  1.200612,  0.886515 )     5.38545926
  WF centre and spread    5  ( -5.029750,  4.947692,  8.709183 )     5.97319759
  WF centre and spread    6  ( -5.179692,  3.790578,  2.838061 )     9.93637749
  WF centre and spread    7  ( -0.949601,  3.366135,  3.383318 )    50.68654782
  WF centre and spread    8  (  2.315164, -2.674846, -1.110131 )   107.41991837
  WF centre and spread    9  ( -6.326428,  4.508845,  3.363596 )    34.77209787
  WF centre and spread   10  ( -6.462906,  3.385114,  3.109072 )    17.81395494
  WF centre and spread   11  ( -2.715167,  3.424548,  6.180891 )    10.22013245
  WF centre and spread   12  ( -1.855393,  4.624240,  4.421753 )    10.65985929
  WF centre and spread   13  ( -4.251733,  7.214562,  2.733933 )     7.24635433
  WF centre and spread   14  ( -4.255044,  6.096565,  5.049651 )    21.94826377
  WF centre and spread   15  ( -3.843153,  2.886548,  1.452478 )    13.29775857
  WF centre and spread   16  ( -0.221115,  3.632482,  5.247005 )     5.63705070
  WF centre and spread   17  ( -3.256813,  3.632629,  6.281868 )    24.50702252
  WF centre and spread   18  ( -2.368306,  1.577778,  4.194239 )    11.71107452
  WF centre and spread   19  ( -8.657928,  4.990595,  5.099432 )     6.33342690
  WF centre and spread   20  ( -6.188952,  3.211294,  6.388924 )    14.94699393
  Sum of centres and spreads (-62.554889, 56.136614, 66.627419 )   571.98310528

     17    -0.388E+01     4.1956297509      571.9831052820       0.39  <-- CONV
        O_D=    315.8823721 O_OD=    163.5708795 O_TOT=    571.9831053 <-- SPRD
 Delta: O_D= -0.1518866E+02 O_OD=  0.1130417E+02 O_TOT= -0.3884489E+01 <-- DLTA
 ------------------------------------------------------------------------------
 Cycle:     18
 internal_new_u_and_m called.
 internal_new_u_and_m called.
  WF centre and spread    1  (  3.063968, -3.719570, -0.744542 )    79.47185965
  WF centre and spread    2  ( -7.962321,  4.024870,  2.532109 )    13.81650231
  WF centre and spread    3  (  2.170380, -3.904034, -3.340665 )   110.57568782
  WF centre and spread    4  ( -0.679794,  1.195410,  0.887994 )     5.44600617
  WF centre and spread    5  ( -5.033080,  4.958562,  8.706329 )     5.96122969
  WF centre and spread    6  ( -5.188804,  3.793511,  2.841145 )    10.06614953
  WF centre and spread    7  ( -0.892593,  3.431551,  3.450394 )    44.56022176
  WF centre and spread    8  (  2.313561, -2.671780, -1.125437 )   105.61644426
  WF centre and spread    9  ( -6.449338,  4.579850,  3.312158 )    27.78674203
  WF centre and spread   10  ( -6.484860,  3.359955,  3.125204 )    17.62094512
  WF centre and spread   11  ( -2.713207,  3.418985,  6.181427 )    10.27353459
  WF centre and spread   12  ( -1.855091,  4.623842,  4.423018 )    10.54846622
  WF centre and spread   13  ( -4.245374,  7.220554,  2.735760 )     7.30830530
  WF centre and spread   14  ( -4.245117,  6.122800,  5.052958 )    22.21258091
  WF centre and spread   15  ( -3.844699,  2.879058,  1.452396 )    13.33297984
  WF centre and spread   16  ( -0.218613,  3.627876,  5.246120 )     5.69587066
  WF centre and spread   17  ( -3.268076,  3.687265,  6.336210 )    24.07232627
  WF centre and spread   18  ( -2.359326,  1.567992,  4.190734 )    11.68884904
  WF centre and spread   19  ( -8.659312,  4.991265,  5.097411 )     6.36874797
  WF centre and spread   20  ( -6.197008,  3.223934,  6.402009 )    14.97965676
  Sum of centres and spreads (-62.748704, 56.411898, 66.762729 )   547.40310592

     18    -0.246E+02     8.3269854947      547.4031059206       0.41  <-- CONV
        O_D=    287.4406070 O_OD=    167.4326453 O_TOT=    547.4031059 <-- SPRD
 Delta: O_D= -0.2844177E+02 O_OD=  0.3861766E+01 O_TOT= -0.2458000E+02 <-- DLTA
 ------------------------------------------------------------------------------
 Cycle:     19
 internal_new_u_and_m called.
 internal_new_u_and_m called.
  WF centre and spread    1  (  2.796724, -3.541273, -0.803081 )    61.53100941
  WF centre and spread    2  ( -7.934147,  3.991638,  2.512852 )    13.61056905
  WF centre and spread    3  (  2.163648, -3.919814, -3.329425 )   110.68750231
  WF centre and spread    4  ( -0.689119,  1.180353,  0.895919 )     5.79811904
  WF centre and spread    5  ( -5.045685,  4.986312,  8.701805 )     5.98574581
  WF centre and spread    6  ( -5.207147,  3.787112,  2.860299 )    10.59992348
  WF centre and spread    7  ( -0.747358,  3.586503,  3.647067 )    41.84598634
  WF centre and spread    8  (  2.346946, -2.740470, -1.173762 )    98.75678719
  WF centre and spread    9  ( -6.522857,  4.679652,  3.325665 )    26.69395859
  WF centre and spread   10  ( -6.545738,  3.328537,  3.156585 )    17.84304575
  WF centre and spread   11  ( -2.716749,  3.405258,  6.175632 )    10.68900032
  WF centre and spread   12  ( -1.851014,  4.620853,  4.430217 )    10.46631566
  WF centre and spread   13  ( -4.228436,  7.237732,  2.744138 )     7.69742867
  WF centre and spread   14  ( -4.229757,  6.209883,  5.060586 )    23.42753735
  WF centre and spread   15  ( -3.835088,  2.863389,  1.453923 )    13.67849799
  WF centre and spread   16  ( -0.213481,  3.613865,  5.249841 )     6.02621045
  WF centre and spread   17  ( -3.274048,  3.697881,  6.248199 )    24.25716060
  WF centre and spread   18  ( -2.345779,  1.552840,  4.181341 )    11.96740881
  WF centre and spread   19  ( -8.662722,  4.996733,  5.088518 )     6.66982710
  WF centre and spread   20  ( -6.208742,  3.246231,  6.438552 )    15.17068265
  Sum of centres and spreads (-62.950550, 56.783216, 66.864871 )   523.40271657

     19    -0.240E+02     6.1505283115      523.4027165686       0.44  <-- CONV
        O_D=    251.5056272 O_OD=    179.3672357 O_TOT=    523.4027166 <-- SPRD
 Delta: O_D= -0.3593498E+02 O_OD=  0.1193459E+02 O_TOT= -0.2400039E+02 <-- DLTA
 ------------------------------------------------------------------------------
 Cycle:     20
 internal_new_u_and_m called.
 internal_new_u_and_m called.
  WF centre and spread    1  (  2.760467, -3.420189, -0.894148 )    35.69517460
  WF centre and spread    2  ( -7.881804,  3.940423,  2.467899 )    13.40945077
  WF centre and spread    3  (  2.166689, -3.951621, -3.307524 )   111.01985257
  WF centre and spread    4  ( -0.685160,  1.151425,  0.918494 )     6.70324601
  WF centre and spread    5  ( -5.074434,  5.046232,  8.685363 )     6.32846478
  WF centre and spread    6  ( -5.209519,  3.766264,  2.916791 )    12.27596679
  WF centre and spread    7  ( -0.514604,  3.313758,  3.416731 )    51.79499773
  WF centre and spread    8  (  2.422300, -2.920510, -1.190651 )    79.01753402
  WF centre and spread    9  ( -6.277606,  4.498058,  3.270720 )    35.25924321
  WF centre and spread   10  ( -6.554262,  3.324184,  3.218292 )    17.80339975
  WF centre and spread   11  ( -2.749021,  3.391736,  6.181934 )    11.90544243
  WF centre and spread   12  ( -1.822359,  4.620337,  4.449555 )    10.73949346
  WF centre and spread   13  ( -4.176162,  7.263670,  2.760991 )     8.67447818
  WF centre and spread   14  ( -4.147312,  6.324915,  4.990391 )    25.96228675
  WF centre and spread   15  ( -3.825395,  2.854988,  1.476886 )    14.45612089
  WF centre and spread   16  ( -0.209052,  3.583435,  5.270078 )     6.81752446
  WF centre and spread   17  ( -3.194112,  3.815340,  6.187013 )    26.55230850
  WF centre and spread   18  ( -2.340843,  1.542683,  4.174485 )    13.17295269
  WF centre and spread   19  ( -8.679311,  5.014358,  5.072477 )     7.81691753
  WF centre and spread   20  ( -6.244429,  3.304583,  6.497541 )    15.85975291
  Sum of centres and spreads (-62.235929, 56.464070, 66.563316 )   511.26460803

     20    -0.121E+02     6.6174582707      511.2646080275       0.46  <-- CONV
        O_D=    213.4649131 O_OD=    205.2698413 O_TOT=    511.2646080 <-- SPRD
 Delta: O_D= -0.3804071E+02 O_OD=  0.2590261E+02 O_TOT= -0.1213811E+02 <-- DLTA
 ------------------------------------------------------------------------------
 Cycle:     21
 internal_new_u_and_m called.
 internal_new_u_and_m called.
  WF centre and spread    1  (  2.793336, -3.325229, -0.977867 )    31.37263881
  WF centre and spread    2  ( -7.862466,  3.924691,  2.458652 )    13.58022938
  WF centre and spread    3  (  2.170524, -3.963462, -3.299019 )   111.08263240
  WF centre and spread    4  ( -0.683351,  1.141370,  0.926463 )     7.03628856
  WF centre and spread    5  ( -5.086994,  5.066384,  8.676520 )     6.49554381
  WF centre and spread    6  ( -5.206210,  3.754107,  2.935327 )    12.97265301
  WF centre and spread    7  ( -0.534113,  3.406498,  3.483451 )    47.25193592
  WF centre and spread    8  (  2.412838, -2.995623, -1.196726 )    68.55251207
  WF centre and spread    9  ( -6.236927,  4.468098,  3.304077 )    36.14553420
  WF centre and spread   10  ( -6.561924,  3.319646,  3.242579 )    17.87814995
  WF centre and spread   11  ( -2.764620,  3.393382,  6.185704 )    12.42684604
  WF centre and spread   12  ( -1.812605,  4.622646,  4.455248 )    10.94624870
  WF centre and spread   13  ( -4.165468,  7.270196,  2.761247 )     9.05697744
  WF centre and spread   14  ( -4.095153,  6.340954,  4.965761 )    27.10251524
  WF centre and spread   15  ( -3.829368,  2.852474,  1.483378 )    14.90533025
  WF centre and spread   16  ( -0.208964,  3.571221,  5.277930 )     7.14292109
  WF centre and spread   17  ( -3.157325,  3.846671,  6.137332 )    27.36010010
  WF centre and spread   18  ( -2.339562,  1.542816,  4.169957 )    13.69862931
  WF centre and spread   19  ( -8.685318,  5.020856,  5.071613 )     8.31199957
  WF centre and spread   20  ( -6.258033,  3.323000,  6.512303 )    16.17119444
  Sum of centres and spreads (-62.111702, 56.580695, 66.573930 )   499.49088029

     21    -0.118E+02     9.2945093598      499.4908802938       0.49  <-- CONV
        O_D=    191.9911542 O_OD=    214.9698724 O_TOT=    499.4908803 <-- SPRD
 Delta: O_D= -0.2147376E+02 O_OD=  0.9700031E+01 O_TOT= -0.1177373E+02 <-- DLTA
 ------------------------------------------------------------------------------
 Cycle:     22
 internal_new_u_and_m called.
 internal_new_u_and_m called.
  WF centre and spread    1  (  2.891876, -3.310087, -1.010230 )    29.41550657
  WF centre and spread    2  ( -7.830224,  3.898846,  2.450173 )    13.97844741
  WF centre and spread    3  (  2.172720, -3.985314, -3.284016 )   110.91320027
  WF centre and spread    4  ( -0.685748,  1.126411,  0.939376 )     7.41669981
  WF centre and spread    5  ( -5.107146,  5.096412,  8.662326 )     6.60475089
  WF centre and spread    6  ( -5.205407,  3.730932,  2.966501 )    14.00107105
  WF centre and spread    7  ( -0.564824,  3.482692,  3.553801 )    42.88487082
  WF centre and spread    8  (  2.324270, -3.142560, -1.314282 )    47.84908862
  WF centre and spread    9  ( -6.221288,  4.501701,  3.450974 )    34.47661779
  WF centre and spread   10  ( -6.598887,  3.304965,  3.289272 )    18.02087211
  WF centre and spread   11  ( -2.787461,  3.396927,  6.188258 )    13.27260785
  WF centre and spread   12  ( -1.792254,  4.633711,  4.459905 )    11.19689339
  WF centre and spread   13  ( -4.156155,  7.276466,  2.764135 )     9.49549412
  WF centre and spread   14  ( -4.008158,  6.367256,  4.904093 )    28.93758752
  WF centre and spread   15  ( -3.846792,  2.845916,  1.492596 )    15.80860975
  WF centre and spread   16  ( -0.209965,  3.550041,  5.288908 )     7.60645486
  WF centre and spread   17  ( -3.020767,  3.864091,  6.050044 )    28.35707143
  WF centre and spread   18  ( -2.326835,  1.539914,  4.152086 )    14.37306484
  WF centre and spread   19  ( -8.693102,  5.031609,  5.075107 )     8.98507811
  WF centre and spread   20  ( -6.272527,  3.348496,  6.523477 )    16.53337359
  Sum of centres and spreads (-61.938676, 56.558426, 66.602502 )   480.12736079

     22    -0.194E+02     8.5140326890      480.1273607909       0.51  <-- CONV
        O_D=    157.4749760 O_OD=    230.1225311 O_TOT=    480.1273608 <-- SPRD
 Delta: O_D= -0.3451618E+02 O_OD=  0.1515266E+02 O_TOT= -0.1936352E+02 <-- DLTA
 ------------------------------------------------------------------------------
 Cycle:     23
 internal_new_u_and_m called.
 internal_new_u_and_m called.
  WF centre and spread    1  (  3.024484, -3.357246, -0.910665 )    34.24612152
  WF centre and spread    2  ( -7.792830,  3.851693,  2.449034 )    15.17611603
  WF centre and spread    3  (  2.163858, -4.024957, -3.265780 )   110.08230725
  WF centre and spread    4  ( -0.685607,  1.107244,  0.956360 )     8.03447131
  WF centre and spread    5  ( -5.138733,  5.145355,  8.642204 )     6.89850563
  WF centre and spread    6  ( -5.218779,  3.679296,  3.017425 )    15.87230113
  WF centre and spread    7  ( -1.111765,  3.963318,  4.054045 )    36.37969682
  WF centre and spread    8  (  2.236339, -3.182018, -1.441089 )    28.07254434
  WF centre and spread    9  ( -6.051540,  4.415074,  3.535670 )    36.61771501
  WF centre and spread   10  ( -6.689381,  3.293171,  3.366450 )    19.50256073
  WF centre and spread   11  ( -2.827976,  3.378627,  6.204263 )    14.90034327
  WF centre and spread   12  ( -1.736416,  4.664526,  4.456358 )    11.63923042
  WF centre and spread   13  ( -4.136997,  7.281418,  2.778811 )    10.28685547
  WF centre and spread   14  ( -3.976996,  6.299984,  4.736974 )    33.79140650
  WF centre and spread   15  ( -3.896127,  2.849308,  1.486292 )    18.10277881
  WF centre and spread   16  ( -0.210261,  3.511241,  5.295603 )     8.40565317
  WF centre and spread   17  ( -2.657026,  3.938851,  5.933675 )    32.55381164
  WF centre and spread   18  ( -2.293779,  1.511987,  4.092803 )    15.83502653
  WF centre and spread   19  ( -8.696963,  5.050759,  5.086380 )    10.21003477
  WF centre and spread   20  ( -6.279288,  3.404897,  6.503153 )    17.42330552
  Sum of centres and spreads (-61.975784, 56.782528, 66.977966 )   484.03078588

     23     0.390E+01     8.1498452243      484.0307858828       0.53  <-- CONV
        O_D=    135.8985196 O_OD=    255.6024126 O_TOT=    484.0307859 <-- SPRD
 Delta: O_D= -0.2157646E+02 O_OD=  0.2547988E+02 O_TOT=  0.3903425E+01 <-- DLTA
 ------------------------------------------------------------------------------
 Cycle:     24
 internal_new_u_and_m called.
 internal_new_u_and_m called.
  WF centre and spread    1  (  3.050772, -3.370998, -0.949591 )    32.99267204
  WF centre and spread    2  ( -7.790038,  3.853529,  2.450792 )    15.06619284
  WF centre and spread    3  (  2.165053, -4.025275, -3.264867 )   109.88350471
  WF centre and spread    4  ( -0.685024,  1.107403,  0.957593 )     7.96134942
  WF centre and spread    5  ( -5.139924,  5.147351,  8.642241 )     6.80160161
  WF centre and spread    6  ( -5.220061,  3.678241,  3.019967 )    15.77459893
  WF centre and spread    7  ( -1.102058,  3.964284,  4.057805 )    34.70861661
  WF centre and spread    8  (  2.235863, -3.182449, -1.444670 )    27.77643715
  WF centre and spread    9  ( -6.073582,  4.437926,  3.524032 )    35.08970337
  WF centre and spread   10  ( -6.690564,  3.290005,  3.367057 )    19.28049683
  WF centre and spread   11  ( -2.828831,  3.379354,  6.204823 )    14.80149643
  WF centre and spread   12  ( -1.735520,  4.664256,  4.454656 )    11.56841198
  WF centre and spread   13  ( -4.135334,  7.280034,  2.779035 )    10.19404494
  WF centre and spread   14  ( -3.931880,  6.332384,  4.784245 )    32.27435390
  WF centre and spread   15  ( -3.895855,  2.846924,  1.486594 )    18.02691448
  WF centre and spread   16  ( -0.209717,  3.511272,  5.295024 )     8.34728272
  WF centre and spread   17  ( -2.684278,  3.914408,  5.968296 )    31.69950845
  WF centre and spread   18  ( -2.294393,  1.509089,  4.094611 )    15.74225098
  WF centre and spread   19  ( -8.696845,  5.049916,  5.085941 )    10.14515935
  WF centre and spread   20  ( -6.278747,  3.405796,  6.503259 )    17.32586838
  Sum of centres and spreads (-61.940963, 56.793450, 67.016845 )   475.46046511

     24    -0.857E+01    14.0157646963      475.4604651125       0.55  <-- CONV
        O_D=    129.5007863 O_OD=    253.4298252 O_TOT=    475.4604651 <-- SPRD
 Delta: O_D= -0.6397733E+01 O_OD= -0.2172587E+01 O_TOT= -0.8570321E+01 <-- DLTA
 ------------------------------------------------------------------------------
 Cycle:     25
 internal_new_u_and_m called.
 internal_new_u_and_m called.
  WF centre and spread    1  (  3.062575, -3.327093, -1.052443 )    27.57954454
  WF centre and spread    2  ( -7.779032,  3.858335,  2.461835 )    14.31835206
  WF centre and spread    3  (  2.169451, -4.026322, -3.259003 )   108.50799698
  WF centre and spread    4  ( -0.680015,  1.108901,  0.964152 )     7.44369128
  WF centre and spread    5  ( -5.147026,  5.160723,  8.641843 )     6.14557538
  WF centre and spread    6  ( -5.232732,  3.668981,  3.036409 )    15.09939812
  WF centre and spread    7  ( -1.086538,  3.949343,  4.106057 )    27.60029432
  WF centre and spread    8  (  2.245533, -3.179356, -1.456517 )    25.96839862
  WF centre and spread    9  ( -6.130899,  4.463316,  3.547314 )    31.05025447
  WF centre and spread   10  ( -6.699074,  3.269791,  3.371456 )    17.76656857
  WF centre and spread   11  ( -2.836178,  3.381723,  6.209639 )    14.07076723
  WF centre and spread   12  ( -1.731077,  4.661384,  4.447461 )    10.99914266
  WF centre and spread   13  ( -4.124846,  7.274799,  2.782731 )     9.53894046
  WF centre and spread   14  ( -3.924863,  6.421307,  4.756106 )    29.64000570
  WF centre and spread   15  ( -3.900381,  2.827884,  1.490119 )    17.43941293
  WF centre and spread   16  ( -0.205875,  3.511509,  5.290640 )     7.93707909
  WF centre and spread   17  ( -2.662848,  3.954493,  5.952328 )    29.10863066
  WF centre and spread   18  ( -2.296396,  1.488629,  4.104276 )    15.15209324
  WF centre and spread   19  ( -8.697013,  5.043127,  5.081692 )     9.65829310
  WF centre and spread   20  ( -6.270260,  3.413597,  6.506462 )    16.62584752
  Sum of centres and spreads (-61.927496, 56.925070, 66.982558 )   441.65028693

     25    -0.338E+02     9.4678415214      441.6502869268       0.57  <-- CONV
        O_D=    111.2929130 O_OD=    237.8275202 O_TOT=    441.6502869 <-- SPRD
 Delta: O_D= -0.1820787E+02 O_OD= -0.1560230E+02 O_TOT= -0.3381018E+02 <-- DLTA
 ------------------------------------------------------------------------------
 Cycle:     26
 internal_new_u_and_m called.
 internal_new_u_and_m called.
  WF centre and spread    1  (  3.054774, -3.264376, -1.164355 )    22.53993528
  WF centre and spread    2  ( -7.769220,  3.865093,  2.475320 )    12.82146465
  WF centre and spread    3  (  2.176629, -4.025343, -3.243583 )   104.05133378
  WF centre and spread    4  ( -0.659467,  1.112835,  0.981297 )     6.49047053
  WF centre and spread    5  ( -5.154276,  5.180267,  8.638753 )     5.17822114
  WF centre and spread    6  ( -5.268234,  3.642205,  3.071292 )    13.77313208
  WF centre and spread    7  ( -1.135456,  3.975013,  4.204028 )    27.63479521
  WF centre and spread    8  (  2.279302, -3.133183, -1.472352 )    24.79239857
  WF centre and spread    9  ( -6.168772,  4.504438,  3.587283 )    29.17718262
  WF centre and spread   10  ( -6.734158,  3.219641,  3.388531 )    15.32102934
  WF centre and spread   11  ( -2.857968,  3.383108,  6.220122 )    12.37096083
  WF centre and spread   12  ( -1.718708,  4.659874,  4.429568 )     9.80426875
  WF centre and spread   13  ( -4.108946,  7.277876,  2.800186 )     8.28732970
  WF centre and spread   14  ( -3.882756,  6.458995,  4.720638 )    26.42388696
  WF centre and spread   15  ( -3.920142,  2.777747,  1.500601 )    16.23850355
  WF centre and spread   16  ( -0.199936,  3.513263,  5.277510 )     7.08961551
  WF centre and spread   17  ( -2.627653,  4.022032,  5.873269 )    26.49509504
  WF centre and spread   18  ( -2.298390,  1.433332,  4.109222 )    13.93592220
  WF centre and spread   19  ( -8.690848,  5.034977,  5.073813 )     8.53209941
  WF centre and spread   20  ( -6.239624,  3.438820,  6.513285 )    15.01312088
  Sum of centres and spreads (-61.923849, 57.076616, 66.984429 )   405.97076604

[...]
 Cycle:     43
 internal_new_u_and_m called.
 internal_new_u_and_m called.
  WF centre and spread    1  (  3.088791, -3.632290, -2.237782 )     8.72935206
  WF centre and spread    2  ( -7.725924,  3.849975,  2.547938 )     8.43921235
  WF centre and spread    3  (  3.140239, -2.867162, -3.326746 )    15.20281130
  WF centre and spread    4  ( -0.599014,  1.055462,  1.039527 )     5.00937020
  WF centre and spread    5  ( -5.154470,  5.308510,  8.635324 )     4.82308732
  WF centre and spread    6  ( -5.279349,  3.399666,  3.121551 )     8.24511188
  WF centre and spread    7  ( -0.430697,  4.609578,  3.503269 )    28.28211138
  WF centre and spread    8  (  2.346991, -3.206177, -1.690710 )    23.50298440
  WF centre and spread    9  ( -5.738282,  4.439373,  3.051543 )    18.81149414
  WF centre and spread   10  ( -6.809860,  2.965234,  3.711388 )     8.11035506
  WF centre and spread   11  ( -3.128554,  3.184305,  6.340060 )     6.04351195
  WF centre and spread   12  ( -1.613829,  4.774256,  4.561660 )     6.69720116
  WF centre and spread   13  ( -4.044631,  7.292968,  2.845743 )     5.35567441
  WF centre and spread   14  ( -3.037205,  6.614005,  4.711165 )    15.55585871
  WF centre and spread   15  ( -3.903135,  2.401466,  1.393661 )    11.71292017
  WF centre and spread   16  ( -0.116754,  3.512444,  5.257584 )     5.24218769
  WF centre and spread   17  ( -2.064847,  4.136199,  5.453110 )    20.06631862
  WF centre and spread   18  ( -2.118622,  1.128374,  4.035785 )    10.73650313
  WF centre and spread   19  ( -8.635804,  5.073408,  5.164692 )     4.71219462
  WF centre and spread   20  ( -6.375906,  3.882219,  6.474237 )    10.00066803
  Sum of centres and spreads (-58.200863, 57.921812, 64.593001 )   225.27892857

     43    -0.125E+01     3.6524889599      225.2789285738       0.99  <-- CONV
        O_D=      4.1646020 O_OD=    128.5844729 O_TOT=    225.2789286 <-- SPRD
 Delta: O_D= -0.9227102E+00 O_OD= -0.3275771E+00 O_TOT= -0.1250287E+01 <-- DLTA
 ------------------------------------------------------------------------------
 Cycle:     44
 internal_new_u_and_m called.
 internal_new_u_and_m called.
  WF centre and spread    1  (  3.084519, -3.650126, -2.255634 )     8.33226654
  WF centre and spread    2  ( -7.726710,  3.852056,  2.546560 )     8.36802774
  WF centre and spread    3  (  3.144979, -2.860430, -3.322820 )    14.91928796
  WF centre and spread    4  ( -0.597697,  1.051795,  1.042547 )     5.00010507
  WF centre and spread    5  ( -5.151636,  5.310295,  8.635869 )     4.82451366
  WF centre and spread    6  ( -5.276032,  3.394640,  3.127443 )     8.19238154
  WF centre and spread    7  ( -0.434062,  4.671738,  3.520471 )    28.46129158
  WF centre and spread    8  (  2.336237, -3.208147, -1.665361 )    23.32906507
  WF centre and spread    9  ( -5.745127,  4.433989,  3.035357 )    18.62701576
  WF centre and spread   10  ( -6.810907,  2.962912,  3.712810 )     8.02600957
  WF centre and spread   11  ( -3.131313,  3.177632,  6.341145 )     5.98106890
  WF centre and spread   12  ( -1.612326,  4.772695,  4.565854 )     6.66772923
  WF centre and spread   13  ( -4.045183,  7.296002,  2.846478 )     5.31836491
  WF centre and spread   14  ( -3.017184,  6.634597,  4.717924 )    15.41876481
  WF centre and spread   15  ( -3.908498,  2.392696,  1.392449 )    11.68641123
  WF centre and spread   16  ( -0.115040,  3.512333,  5.256778 )     5.24428408
  WF centre and spread   17  ( -2.043055,  4.133672,  5.453680 )    20.00765761
  WF centre and spread   18  ( -2.116855,  1.128390,  4.037691 )    10.68965337
  WF centre and spread   19  ( -8.635321,  5.074676,  5.166459 )     4.69235562
  WF centre and spread   20  ( -6.378793,  3.886131,  6.472917 )     9.93891828
  Sum of centres and spreads (-58.180004, 57.967547, 64.628619 )   223.72517254

     44    -0.155E+01     1.8953750987      223.7251725447       1.01  <-- CONV
        O_D=      4.0732636 O_OD=    127.1220553 O_TOT=    223.7251725 <-- SPRD
 Delta: O_D= -0.9133845E-01 O_OD= -0.1462418E+01 O_TOT= -0.1553756E+01 <-- DLTA
 ------------------------------------------------------------------------------
 Cycle:     45
 internal_new_u_and_m called.
 internal_new_u_and_m called.
  WF centre and spread    1  (  3.071674, -3.708354, -2.310190 )     7.45518614
  WF centre and spread    2  ( -7.729011,  3.860127,  2.541247 )     8.20071421
  WF centre and spread    3  (  3.163051, -2.844007, -3.310730 )    14.26088328
  WF centre and spread    4  ( -0.594285,  1.040471,  1.053950 )     5.01514477
  WF centre and spread    5  ( -5.143062,  5.317013,  8.636978 )     4.87250322
  WF centre and spread    6  ( -5.265188,  3.378057,  3.149122 )     8.10085118
  WF centre and spread    7  ( -0.356451,  4.722098,  3.493367 )    29.95754038
  WF centre and spread    8  (  2.283024, -3.160368, -1.649563 )    23.04646133
  WF centre and spread    9  ( -5.769382,  4.409377,  2.986846 )    18.29970114
  WF centre and spread   10  ( -6.814027,  2.954973,  3.718417 )     7.85998490
  WF centre and spread   11  ( -3.139783,  3.156152,  6.343657 )     5.85010348
  WF centre and spread   12  ( -1.606700,  4.768459,  4.578182 )     6.61403915
  WF centre and spread   13  ( -4.045925,  7.305641,  2.849085 )     5.26406433
  WF centre and spread   14  ( -2.968466,  6.685473,  4.722073 )    15.12450252
  WF centre and spread   15  ( -3.926259,  2.361190,  1.391376 )    11.66648292
  WF centre and spread   16  ( -0.107825,  3.512363,  5.252977 )     5.28038677
  WF centre and spread   17  ( -1.974814,  4.137580,  5.446125 )    19.87936178
  WF centre and spread   18  ( -2.121535,  1.120087,  4.046568 )    10.64594109
  WF centre and spread   19  ( -8.634581,  5.079010,  5.171715 )     4.67687736
  WF centre and spread   20  ( -6.386469,  3.897179,  6.469652 )     9.83654326
  Sum of centres and spreads (-58.066014, 57.992519, 64.580856 )   221.90727320

     45    -0.182E+01     1.7841931496      221.9072732012       1.03  <-- CONV
        O_D=      5.1043495 O_OD=    124.2730700 O_TOT=    221.9072732 <-- SPRD
 Delta: O_D=  0.1031086E+01 O_OD= -0.2848985E+01 O_TOT= -0.1817899E+01 <-- DLTA
 ------------------------------------------------------------------------------
 Cycle:     46
 internal_new_u_and_m called.
 internal_new_u_and_m called.
  WF centre and spread    1  (  3.070838, -3.710726, -2.311538 )     7.42197967
  WF centre and spread    2  ( -7.729163,  3.860048,  2.540896 )     8.18869181
  WF centre and spread    3  (  3.163817, -2.843178, -3.310706 )    14.23003242
  WF centre and spread    4  ( -0.594036,  1.039960,  1.054506 )     5.01505014
  WF centre and spread    5  ( -5.142641,  5.317016,  8.636888 )     4.87151906
  WF centre and spread    6  ( -5.264293,  3.377551,  3.150297 )     8.09604399
  WF centre and spread    7  ( -0.342281,  4.695469,  3.466411 )    29.24929225
  WF centre and spread    8  (  2.288468, -3.169348, -1.657108 )    22.98937748
  WF centre and spread    9  ( -5.771077,  4.406973,  2.983826 )    18.27618482
  WF centre and spread   10  ( -6.813628,  2.954690,  3.718581 )     7.85014955
  WF centre and spread   11  ( -3.140195,  3.155202,  6.343883 )     5.84415321
  WF centre and spread   12  ( -1.606572,  4.768258,  4.578780 )     6.61236239
  WF centre and spread   13  ( -4.045915,  7.306213,  2.849425 )     5.25956824
  WF centre and spread   14  ( -2.967770,  6.685248,  4.721098 )    15.07757745
  WF centre and spread   15  ( -3.926512,  2.360389,  1.392031 )    11.66516871
  WF centre and spread   16  ( -0.107508,  3.512341,  5.252709 )     5.28062858
  WF centre and spread   17  ( -1.974311,  4.140161,  5.445901 )    19.86255579
  WF centre and spread   18  ( -2.121976,  1.118579,  4.046821 )    10.63920971
  WF centre and spread   19  ( -8.634510,  5.079172,  5.171649 )     4.67502928
  WF centre and spread   20  ( -6.386481,  3.897789,  6.469477 )     9.83141498
  Sum of centres and spreads (-58.045748, 57.951807, 64.543824 )   220.93598953

     46    -0.971E+00     3.8543396827      220.9359895293       1.06  <-- CONV
        O_D=      4.2874300 O_OD=    124.1187058 O_TOT=    220.9359895 <-- SPRD
 Delta: O_D= -0.8169195E+00 O_OD= -0.1543642E+00 O_TOT= -0.9712837E+00 <-- DLTA
 ------------------------------------------------------------------------------
 Cycle:     47
 internal_new_u_and_m called.
 internal_new_u_and_m called.
  WF centre and spread    1  (  3.068085, -3.721439, -2.319347 )     7.24621292
  WF centre and spread    2  ( -7.730065,  3.861407,  2.539588 )     8.14117902
  WF centre and spread    3  (  3.166622, -2.839261, -3.310884 )    14.07388142
  WF centre and spread    4  ( -0.593058,  1.037761,  1.057161 )     5.01261142
  WF centre and spread    5  ( -5.141066,  5.317781,  8.637187 )     4.87042445
  WF centre and spread    6  ( -5.260624,  3.374983,  3.155417 )     8.07638249
  WF centre and spread    7  ( -0.342662,  4.723522,  3.417079 )    28.98740414
  WF centre and spread    8  (  2.287601, -3.179176, -1.660025 )    22.85040643
  WF centre and spread    9  ( -5.778545,  4.399489,  2.974292 )    18.20943336
  WF centre and spread   10  ( -6.813006,  2.953324,  3.719650 )     7.80791588
  WF centre and spread   11  ( -3.141623,  3.150995,  6.344480 )     5.81143755
  WF centre and spread   12  ( -1.605516,  4.767540,  4.581028 )     6.59983112
  WF centre and spread   13  ( -4.046069,  7.308763,  2.850555 )     5.23983971
  WF centre and spread   14  ( -2.961782,  6.687203,  4.717062 )    14.92915012
  WF centre and spread   15  ( -3.928360,  2.355127,  1.392978 )    11.65339079
  WF centre and spread   16  ( -0.105880,  3.512181,  5.251657 )     5.28312414
  WF centre and spread   17  ( -1.968906,  4.151265,  5.444223 )    19.80992260
  WF centre and spread   18  ( -2.125338,  1.113492,  4.048776 )    10.61693955
  WF centre and spread   19  ( -8.634671,  5.079781,  5.172236 )     4.66487626
  WF centre and spread   20  ( -6.386610,  3.900132,  6.469066 )     9.81274000
  Sum of centres and spreads (-58.041472, 57.954871, 64.482181 )   219.69710335

     47    -0.124E+01     2.1137162650      219.6971033492       1.08  <-- CONV
        O_D=      3.7726098 O_OD=    123.3946398 O_TOT=    219.6971033 <-- SPRD
 Delta: O_D= -0.5148202E+00 O_OD= -0.7240660E+00 O_TOT= -0.1238886E+01 <-- DLTA
 ------------------------------------------------------------------------------
 Cycle:     48
 internal_new_u_and_m called.
 internal_new_u_and_m called.
  WF centre and spread    1  (  3.062686, -3.745171, -2.337248 )     6.89276287
  WF centre and spread    2  ( -7.732747,  3.866095,  2.537919 )     8.05406331
  WF centre and spread    3  (  3.172111, -2.832394, -3.310083 )    13.76944254
  WF centre and spread    4  ( -0.590925,  1.032805,  1.062230 )     5.01478669
  WF centre and spread    5  ( -5.137884,  5.320566,  8.637976 )     4.87603768
  WF centre and spread    6  ( -5.253211,  3.368975,  3.167204 )     8.04381179
  WF centre and spread    7  ( -0.304662,  4.753333,  3.338629 )    29.45454062
  WF centre and spread    8  (  2.247892, -3.136391, -1.640886 )    22.92907215
  WF centre and spread    9  ( -5.789337,  4.388475,  2.954492 )    18.12077657
  WF centre and spread   10  ( -6.813531,  2.949940,  3.721042 )     7.73209427
  WF centre and spread   11  ( -3.144807,  3.141149,  6.345361 )     5.75826607
  WF centre and spread   12  ( -1.603265,  4.765935,  4.586267 )     6.57483068
  WF centre and spread   13  ( -4.047071,  7.313367,  2.852272 )     5.20826628
  WF centre and spread   14  ( -2.944427,  6.700812,  4.711519 )    14.75734454
  WF centre and spread   15  ( -3.933115,  2.342665,  1.394654 )    11.62252908
  WF centre and spread   16  ( -0.101882,  3.511896,  5.249157 )     5.29337549
  WF centre and spread   17  ( -1.936827,  4.156408,  5.438750 )    19.69838826
  WF centre and spread   18  ( -2.129817,  1.106150,  4.050481 )    10.58545434
  WF centre and spread   19  ( -8.634710,  5.081204,  5.174332 )     4.65105790
  WF centre and spread   20  ( -6.386919,  3.903637,  6.467781 )     9.77265884
  Sum of centres and spreads (-58.002449, 57.989457, 64.401849 )   218.80955998

     48    -0.888E+00     1.5543380956      218.8095599780       1.10  <-- CONV
        O_D=      4.2069650 O_OD=    122.0727414 O_TOT=    218.8095600 <-- SPRD
 Delta: O_D=  0.4343551E+00 O_OD= -0.1321898E+01 O_TOT= -0.8875434E+00 <-- DLTA
 ------------------------------------------------------------------------------
 Cycle:     49
 internal_new_u_and_m called.
 internal_new_u_and_m called.
  WF centre and spread    1  (  3.058769, -3.763812, -2.351101 )     6.65909701
  WF centre and spread    2  ( -7.735353,  3.870311,  2.536826 )     7.99735588
  WF centre and spread    3  (  3.175583, -2.827283, -3.309668 )    13.58201657
  WF centre and spread    4  ( -0.589254,  1.028601,  1.066273 )     5.02053464
  WF centre and spread    5  ( -5.135388,  5.322866,  8.638354 )     4.88766132
  WF centre and spread    6  ( -5.246986,  3.363911,  3.177096 )     8.02485859
  WF centre and spread    7  ( -0.233478,  4.744062,  3.295021 )    29.99264702
  WF centre and spread    8  (  2.261020, -3.144506, -1.664714 )    22.65855714
  WF centre and spread    9  ( -5.797303,  4.379991,  2.938237 )    18.07518098
  WF centre and spread   10  ( -6.813980,  2.947320,  3.722435 )     7.68662562
  WF centre and spread   11  ( -3.147232,  3.132854,  6.346034 )     5.72677113
  WF centre and spread   12  ( -1.601830,  4.764679,  4.590469 )     6.55857424
  WF centre and spread   13  ( -4.048143,  7.316997,  2.853475 )     5.18878801
  WF centre and spread   14  ( -2.929282,  6.713527,  4.708223 )    14.66860802
  WF centre and spread   15  ( -3.936637,  2.332975,  1.395233 )    11.60692641
  WF centre and spread   16  ( -0.098717,  3.511753,  5.247255 )     5.30638416
  WF centre and spread   17  ( -1.911482,  4.156768,  5.435146 )    19.64966348
  WF centre and spread   18  ( -2.132679,  1.101098,  4.051710 )    10.57013659
  WF centre and spread   19  ( -8.634665,  5.082557,  5.175736 )     4.64872875
  WF centre and spread   20  ( -6.387234,  3.906725,  6.466712 )     9.75124826
  Sum of centres and spreads (-57.884271, 57.941394, 64.318752 )   218.26036383

     49    -0.549E+00     2.4703926778      218.2603638251       1.13  <-- CONV
        O_D=      4.4636284 O_OD=    121.2668817 O_TOT=    218.2603638 <-- SPRD
 Delta: O_D=  0.2566635E+00 O_OD= -0.8058596E+00 O_TOT= -0.5491962E+00 <-- DLTA
 ------------------------------------------------------------------------------
 Cycle:     50
 internal_new_u_and_m called.
 internal_new_u_and_m called.
  WF centre and spread    1  (  3.058509, -3.763986, -2.350880 )     6.65993453
  WF centre and spread    2  ( -7.735508,  3.870411,  2.536945 )     7.99892323
  WF centre and spread    3  (  3.176157, -2.826392, -3.309717 )    13.58534345
  WF centre and spread    4  ( -0.589179,  1.028469,  1.066398 )     5.02013982
  WF centre and spread    5  ( -5.135314,  5.322851,  8.638365 )     4.88776644
  WF centre and spread    6  ( -5.247041,  3.363774,  3.177495 )     8.02356293
  WF centre and spread    7  ( -0.270452,  4.782878,  3.333448 )    29.89555484
  WF centre and spread    8  (  2.262600, -3.144537, -1.662671 )    22.64392768
  WF centre and spread    9  ( -5.797661,  4.379947,  2.937952 )    18.07073444
  WF centre and spread   10  ( -6.814156,  2.947234,  3.722469 )     7.68618929
  WF centre and spread   11  ( -3.147320,  3.132615,  6.346048 )     5.72635158
  WF centre and spread   12  ( -1.601925,  4.764758,  4.590699 )     6.55889171
  WF centre and spread   13  ( -4.048147,  7.317012,  2.853419 )     5.19045252
  WF centre and spread   14  ( -2.929968,  6.714489,  4.709986 )    14.67791364
  WF centre and spread   15  ( -3.936616,  2.332793,  1.395126 )    11.60771272
  WF centre and spread   16  ( -0.098666,  3.511767,  5.247223 )     5.30666087
  WF centre and spread   17  ( -1.912785,  4.155689,  5.434827 )    19.65947723
  WF centre and spread   18  ( -2.132468,  1.100933,  4.051561 )    10.56860260
  WF centre and spread   19  ( -8.634619,  5.082734,  5.175966 )     4.64921087
  WF centre and spread   20  ( -6.387197,  3.906795,  6.466781 )     9.75145016
  Sum of centres and spreads (-57.921757, 57.980235, 64.361437 )   218.16880054

     50    -0.916E-01    10.4574107097      218.1688005446       1.15  <-- CONV
        O_D=      4.3624648 O_OD=    121.2764821 O_TOT=    218.1688005 <-- SPRD
 Delta: O_D= -0.1011636E+00 O_OD=  0.9600365E-02 O_TOT= -0.9156328E-01 <-- DLTA
 ------------------------------------------------------------------------------
 Final State
  WF centre and spread    1  (  3.058509, -3.763986, -2.350880 )     6.65993453
  WF centre and spread    2  ( -7.735508,  3.870411,  2.536945 )     7.99892323
  WF centre and spread    3  (  3.176157, -2.826392, -3.309717 )    13.58534345
  WF centre and spread    4  ( -0.589179,  1.028469,  1.066398 )     5.02013982
  WF centre and spread    5  ( -5.135314,  5.322851,  8.638365 )     4.88776644
  WF centre and spread    6  ( -5.247041,  3.363774,  3.177495 )     8.02356293
  WF centre and spread    7  ( -0.270452,  4.782878,  3.333448 )    29.89555484
  WF centre and spread    8  (  2.262600, -3.144537, -1.662671 )    22.64392768
  WF centre and spread    9  ( -5.797661,  4.379947,  2.937952 )    18.07073444
  WF centre and spread   10  ( -6.814156,  2.947234,  3.722469 )     7.68618929
  WF centre and spread   11  ( -3.147320,  3.132615,  6.346048 )     5.72635158
  WF centre and spread   12  ( -1.601925,  4.764758,  4.590699 )     6.55889171
  WF centre and spread   13  ( -4.048147,  7.317012,  2.853419 )     5.19045252
  WF centre and spread   14  ( -2.929968,  6.714489,  4.709986 )    14.67791364
  WF centre and spread   15  ( -3.936616,  2.332793,  1.395126 )    11.60771272
  WF centre and spread   16  ( -0.098666,  3.511767,  5.247223 )     5.30666087
  WF centre and spread   17  ( -1.912785,  4.155689,  5.434827 )    19.65947723
  WF centre and spread   18  ( -2.132468,  1.100933,  4.051561 )    10.56860260
  WF centre and spread   19  ( -8.634619,  5.082734,  5.175966 )     4.64921087
  WF centre and spread   20  ( -6.387197,  3.906795,  6.466781 )     9.75145016
  Sum of centres and spreads (-57.921757, 57.980235, 64.361437 )   218.16880054

        Spreads (Bohr^2)       Omega I      =    92.529853668
        ================       Omega D      =     4.362464789
                               Omega OD     =   121.276482087
   Final Spread (Bohr^2)       Omega Total  =   218.168800545
 ------------------------------------------------------------------------------

 Wannier centres written to file si_centres.xyz
 Time for wannierise            3.830 (sec)

 Writing checkpoint file si.chk... done

 *---------------------------------------------------------------------------*
 |                               PLOTTING                                    |
 *---------------------------------------------------------------------------*

 Time for plotting              0.020 (sec)
 Total Execution Time           4.090 (sec)

 *===========================================================================*
 |                             TIMING INFORMATION                            |
 *===========================================================================*
 |    Tag                                                Ncalls      Time (s)|
 |---------------------------------------------------------------------------|
 |kmesh: get                                        :         1         0.020|
 |overlap: allocate                                 :         1         0.001|
 |overlap: read                                     :         1         0.209|
 |wann: main                                        :         1         3.830|
 |plot: main                                        :         1         0.020|
 *---------------------------------------------------------------------------*

 All done: wannier90 exiting
