
             +---------------------------------------------------+
             |                                                   |
             |                   WANNIER90                       |
             |                                                   |
             +---------------------------------------------------+
             |                                                   |
             |        Welcome to the Maximally-Localized         |
             |        Generalized Wannier Functions code         |
             |            http://www.wannier.org                 |
             |                                                   |
             |                                                   |
             |  Wannier90 Developer Group:                       |
             |    Giovanni Pizzi    (EPFL)                       |
             |    Valerio Vitale    (Cambridge)                  |
             |    David Vanderbilt  (Rutgers University)         |
             |    Nicola Marzari    (EPFL)                       |
             |    Ivo Souza         (Universidad del Pais Vasco) |
             |    Arash A. Mostofi  (Imperial College London)    |
             |    Jonathan R. Yates (University of Oxford)       |
             |                                                   |
             |  For the full list of Wannier90 3.x authors,      |
             |  please check the code documentation and the      |
             |  README on the GitHub page of the code            |
             |                                                   |
             |                                                   |
             |  Please cite                                      |
             |                                                   |
             |  [ref] "Wannier90 as a community code:            |
             |        new features and applications",            |
             |        G. Pizzi et al., J. Phys. Cond. Matt. 32,  |
             |        165902 (2020).                             |
             |        http://doi.org/10.1088/1361-648X/ab51ff    |
             |                                                   |
             |  in any publications arising from the use of      |
             |  this code. For the method please cite            |
             |                                                   |
             |  [ref] "Maximally Localized Generalised Wannier   |
             |         Functions for Composite Energy Bands"     |
             |         N. Marzari and D. Vanderbilt              |
             |         Phys. Rev. B 56 12847 (1997)              |
             |                                                   |
             |  [ref] "Maximally Localized Wannier Functions     |
             |         for Entangled Energy Bands"               |
             |         I. Souza, N. Marzari and D. Vanderbilt    |
             |         Phys. Rev. B 65 035109 (2001)             |
             |                                                   |
             |                                                   |
             | Copyright (c) 1996-2020                           |
             |        The Wannier90 Developer Group and          |
             |        individual contributors                    |
             |                                                   |
             |      Release: 3.1.0        5th March    2020      |
             |                                                   |
             | This program is free software; you can            |
             | redistribute it and/or modify it under the terms  |
             | of the GNU General Public License as published by |
             | the Free Software Foundation; either version 2 of |
             | the License, or (at your option) any later version|
             |                                                   |
             | This program is distributed in the hope that it   |
             | will be useful, but WITHOUT ANY WARRANTY; without |
             | even the implied warranty of MERCHANTABILITY or   |
             | FITNESS FOR A PARTICULAR PURPOSE. See the GNU     |
             | General Public License for more details.          |
             |                                                   |
             | You should have received a copy of the GNU General|
             | Public License along with this program; if not,   |
             | write to the Free Software Foundation, Inc.,      |
             | 675 Mass Ave, Cambridge, MA 02139, USA.           |
             |                                                   |
             +---------------------------------------------------+
             |    Execution started on 12Jan2022 at 12:36:47     |
             +---------------------------------------------------+
 
 ******************************************************************************
 * -> Using CODATA 2006 constant values                                       *
 *    (http://physics.nist.gov/cuu/Constants/index.html)                      *
 * -> Using Bohr value from CODATA                                            *
 ******************************************************************************
 

 Running in serial (with serial executable)

                                    ------
                                    SYSTEM
                                    ------

                            Lattice Vectors (Bohr)
                    a_1    -5.131500   0.000000   5.131500
                    a_2     0.000000   5.131500   5.131500
                    a_3    -5.131500   5.131500   0.000000

                   Unit Cell Volume:     270.24832  (Bohr^3)

                      Reciprocal-Space Vectors (Bohr^-1)
                    b_1    -0.612217  -0.612217   0.612217
                    b_2     0.612217   0.612217   0.612217
                    b_3    -0.612217   0.612217  -0.612217
  
 *----------------------------------------------------------------------------*
 |   Site       Fractional Coordinate          Cartesian Coordinate (Bohr)    |
 +----------------------------------------------------------------------------+
 | Si   1  -0.25000   0.75000  -0.25000   |    2.56575   2.56575   2.56575    |
 | Si   2   0.00000   0.00000   0.00000   |    0.00000   0.00000   0.00000    |
 *----------------------------------------------------------------------------*
                                ------------
                                K-POINT GRID
                                ------------
  
             Grid size =  4 x  4 x  4      Total points =   64
  
 *----------------------------------------------------------------------------*
 | k-point      Fractional Coordinate        Cartesian Coordinate (Bohr^-1)   |
 +----------------------------------------------------------------------------+
 |     1    0.00000   0.00000   0.00000   |    0.00000   0.00000   0.00000    |
 |     2    0.00000   0.00000   0.25000   |   -0.15305   0.15305  -0.15305    |
 |     3    0.00000   0.00000   0.50000   |   -0.30611   0.30611  -0.30611    |
 |     4    0.00000   0.00000   0.75000   |   -0.45916   0.45916  -0.45916    |
 |     5    0.00000   0.25000   0.00000   |    0.15305   0.15305   0.15305    |
 |     6    0.00000   0.25000   0.25000   |    0.00000   0.30611   0.00000    |
 |     7    0.00000   0.25000   0.50000   |   -0.15305   0.45916  -0.15305    |
 |     8    0.00000   0.25000   0.75000   |   -0.30611   0.61222  -0.30611    |
 |     9    0.00000   0.50000   0.00000   |    0.30611   0.30611   0.30611    |
 |    10    0.00000   0.50000   0.25000   |    0.15305   0.45916   0.15305    |
 |    11    0.00000   0.50000   0.50000   |    0.00000   0.61222   0.00000    |
 |    12    0.00000   0.50000   0.75000   |   -0.15305   0.76527  -0.15305    |
 |    13    0.00000   0.75000   0.00000   |    0.45916   0.45916   0.45916    |
 |    14    0.00000   0.75000   0.25000   |    0.30611   0.61222   0.30611    |
 |    15    0.00000   0.75000   0.50000   |    0.15305   0.76527   0.15305    |
 |    16    0.00000   0.75000   0.75000   |    0.00000   0.91833   0.00000    |
 |    17    0.25000   0.00000   0.00000   |   -0.15305  -0.15305   0.15305    |
 |    18    0.25000   0.00000   0.25000   |   -0.30611   0.00000   0.00000    |
 |    19    0.25000   0.00000   0.50000   |   -0.45916   0.15305  -0.15305    |
 |    20    0.25000   0.00000   0.75000   |   -0.61222   0.30611  -0.30611    |
 |    21    0.25000   0.25000   0.00000   |    0.00000   0.00000   0.30611    |
 |    22    0.25000   0.25000   0.25000   |   -0.15305   0.15305   0.15305    |
 |    23    0.25000   0.25000   0.50000   |   -0.30611   0.30611   0.00000    |
 |    24    0.25000   0.25000   0.75000   |   -0.45916   0.45916  -0.15305    |
 |    25    0.25000   0.50000   0.00000   |    0.15305   0.15305   0.45916    |
 |    26    0.25000   0.50000   0.25000   |    0.00000   0.30611   0.30611    |
 |    27    0.25000   0.50000   0.50000   |   -0.15305   0.45916   0.15305    |
 |    28    0.25000   0.50000   0.75000   |   -0.30611   0.61222   0.00000    |
 |    29    0.25000   0.75000   0.00000   |    0.30611   0.30611   0.61222    |
 |    30    0.25000   0.75000   0.25000   |    0.15305   0.45916   0.45916    |
 |    31    0.25000   0.75000   0.50000   |    0.00000   0.61222   0.30611    |
 |    32    0.25000   0.75000   0.75000   |   -0.15305   0.76527   0.15305    |
 |    33    0.50000   0.00000   0.00000   |   -0.30611  -0.30611   0.30611    |
 |    34    0.50000   0.00000   0.25000   |   -0.45916  -0.15305   0.15305    |
 |    35    0.50000   0.00000   0.50000   |   -0.61222   0.00000   0.00000    |
 |    36    0.50000   0.00000   0.75000   |   -0.76527   0.15305  -0.15305    |
 |    37    0.50000   0.25000   0.00000   |   -0.15305  -0.15305   0.45916    |
 |    38    0.50000   0.25000   0.25000   |   -0.30611   0.00000   0.30611    |
 |    39    0.50000   0.25000   0.50000   |   -0.45916   0.15305   0.15305    |
 |    40    0.50000   0.25000   0.75000   |   -0.61222   0.30611   0.00000    |
 |    41    0.50000   0.50000   0.00000   |    0.00000   0.00000   0.61222    |
 |    42    0.50000   0.50000   0.25000   |   -0.15305   0.15305   0.45916    |
 |    43    0.50000   0.50000   0.50000   |   -0.30611   0.30611   0.30611    |
 |    44    0.50000   0.50000   0.75000   |   -0.45916   0.45916   0.15305    |
 |    45    0.50000   0.75000   0.00000   |    0.15305   0.15305   0.76527    |
 |    46    0.50000   0.75000   0.25000   |    0.00000   0.30611   0.61222    |
 |    47    0.50000   0.75000   0.50000   |   -0.15305   0.45916   0.45916    |
 |    48    0.50000   0.75000   0.75000   |   -0.30611   0.61222   0.30611    |
 |    49    0.75000   0.00000   0.00000   |   -0.45916  -0.45916   0.45916    |
 |    50    0.75000   0.00000   0.25000   |   -0.61222  -0.30611   0.30611    |
 |    51    0.75000   0.00000   0.50000   |   -0.76527  -0.15305   0.15305    |
 |    52    0.75000   0.00000   0.75000   |   -0.91833   0.00000   0.00000    |
 |    53    0.75000   0.25000   0.00000   |   -0.30611  -0.30611   0.61222    |
 |    54    0.75000   0.25000   0.25000   |   -0.45916  -0.15305   0.45916    |
 |    55    0.75000   0.25000   0.50000   |   -0.61222   0.00000   0.30611    |
 |    56    0.75000   0.25000   0.75000   |   -0.76527   0.15305   0.15305    |
 |    57    0.75000   0.50000   0.00000   |   -0.15305  -0.15305   0.76527    |
 |    58    0.75000   0.50000   0.25000   |   -0.30611   0.00000   0.61222    |
 |    59    0.75000   0.50000   0.50000   |   -0.45916   0.15305   0.45916    |
 |    60    0.75000   0.50000   0.75000   |   -0.61222   0.30611   0.30611    |
 |    61    0.75000   0.75000   0.00000   |    0.00000   0.00000   0.91833    |
 |    62    0.75000   0.75000   0.25000   |   -0.15305   0.15305   0.76527    |
 |    63    0.75000   0.75000   0.50000   |   -0.30611   0.30611   0.61222    |
 |    64    0.75000   0.75000   0.75000   |   -0.45916   0.45916   0.45916    |
 *----------------------------------------------------------------------------*
  
  
 *---------------------------------- MAIN ------------------------------------*
 |  Number of Wannier Functions               :                20             |
 |  Number of Objective Wannier Functions     :                20             |
 |  Number of input Bloch states              :                20             |
 |  Output verbosity (1=low, 5=high)          :                 3             |
 |  Timing Level (1=low, 5=high)              :                 1             |
 |  Optimisation (0=memory, 3=speed)          :                 3             |
 |  Length Unit                               :              Bohr             |
 |  Post-processing setup (write *.nnkp)      :                 F             |
 |  Using Gamma-only branch of algorithms     :                 F             |
 |  CP code post-processing                   :                 F             |
 |  Wavefunction (UNK) file-type              :       unformatted             |
 |  Wavefunction spin channel                 :                up             |
 *----------------------------------------------------------------------------*
 *------------------------------- WANNIERISE ---------------------------------*
 |  Total number of iterations                :                 2             |
 |  Number of CG steps before reset           :                 5             |
 |  Trial step length for line search         :             2.000             |
 |  Convergence tolerence                     :         0.100E-09             |
 |  Convergence window                        :                -1             |
 |  Iterations between writing output         :                 1             |
 |  Iterations between backing up to disk     :               100             |
 |  Write r^2_nm to file                      :                 F             |
 |  Write xyz WF centres to file              :                 T             |
 |  Write on-site energies <0n|H|0n> to file  :                 F             |
 |  Use guiding centre to control phases      :                 F             |
 |  Use phases for initial projections        :                 F             |
 |  Iterations before starting guiding centres:                 0             |
 |  Iterations between using guiding centres  :                 1             |
 |  Perform selective localization            :                 F             |
 |  Use constrains in selective localization  :                 F             |
 |  Value of the Lagrange multiplier          :         0.100E+01             |
 *----------------------------------------------------------------------------*
 *------------------------------- DISENTANGLE --------------------------------*
 |  Using band disentanglement                :                 F             |
 |  Total number of iterations                :               200             |
 |  Mixing ratio                              :             0.500             |
 |  Convergence tolerence                     :         1.000E-10             |
 |  Convergence window                        :                 3             |
 *----------------------------------------------------------------------------*
 *-------------------------------- PLOTTING ----------------------------------*
 |  Plotting Wannier functions                :                 F             |
 |   Size of supercell for plotting           :     2x    2x    2             |
 |  Translating WFs to home cell              :                 T             |
 |   Plotting mode (molecule or crystal)      :           crystal             |
 |   Plotting format                          :          xcrysden             |
 |   Plot radius                              :             3.500             |
 |   Plot scale                               :             1.000             |
 *----------------------------------------------------------------------------*
 |  Plotting Fermi surface                    :                 F             |
 |   Number of plotting points (along b_1)    :                50             |
 |   Plotting format                          :          xcrysden             |
 *----------------------------------------------------------------------------*
 |  Plotting interpolated bandstructure       :                 F             |
 |   Number of K-path sections                :                 0             |
 |   Divisions along first K-path section     :               100             |
 |   Output format                            :           gnuplot             |
 |   Output mode                              :               s-k             |
 *----------------------------------------------------------------------------*
 |   K-space path sections:                                                   |
 |     None defined                                                           |
 *----------------------------------------------------------------------------*
 |  Plotting Hamiltonian in WF basis          :                 F             |
 *----------------------------------------------------------------------------*
 |  Writing data for Van der Waals post-proc  :                 F             |
 *----------------------------------------------------------------------------*
 *------------------------------- TRANSPORT ----------------------------------*
 |  Transport mode                            :              bulk             |
 |   Hamiltonian from external files          :                 F             |
 |   System extended in                       :              none             |
 |   Centre of the unit cell to which WF are translated (fract. coords):      |
 |                                       0.000000,    0.000000,    0.000000   |
 |  Fermi energy (eV)                         :             0.000             |
 *----------------------------------------------------------------------------*
 Time to read parameters        0.004 (sec)

 *---------------------------------- K-MESH ----------------------------------*
 +----------------------------------------------------------------------------+
 |                    Distance to Nearest-Neighbour Shells                    |
 |                    ------------------------------------                    |
 |          Shell             Distance (Bohr^-1)         Multiplicity         |
 |          -----             ------------------         ------------         |
 |             1                   0.265098                      8            |
 |             2                   0.306109                      6            |
 |             3                   0.432903                     12            |
 |             4                   0.507624                     24            |
 |             5                   0.530196                      8            |
 |             6                   0.612217                      6            |
 |             7                   0.667148                     24            |
 |             8                   0.684480                     24            |
 |             9                   0.749810                     24            |
 |            10                   0.795293                     32            |
 |            11                   0.865806                     12            |
 |            12                   0.905481                     48            |
 |            13                   0.918326                     30            |
 |            14                   0.968000                     24            |
 |            15                   1.003644                     24            |
 |            16                   1.015247                     24            |
 |            17                   1.060391                      8            |
 |            18                   1.093026                     48            |
 |            19                   1.103690                     24            |
 |            20                   1.145354                     48            |
 |            21                   1.175632                     72            |
 |            22                   1.224434                      6            |
 |            23                   1.252803                     24            |
 |            24                   1.262118                     48            |
 |            25                   1.298709                     36            |
 |            26                   1.325489                     56            |
 |            27                   1.334296                     24            |
 |            28                   1.368959                     24            |
 |            29                   1.394391                     72            |
 |            30                   1.402766                     48            |
 |            31                   1.435777                     24            |
 |            32                   1.460045                     48            |
 |            33                   1.499620                     24            |
 |            34                   1.522871                     72            |
 |            35                   1.530543                     30            |
 |            36                   1.560854                     72            |
 +----------------------------------------------------------------------------+
 | The b-vectors are chosen automatically                                     |
 | Shell:  1 Multiplicity:  8                                                 |
 | b-vector 1 :       -0.153054    0.153054   -0.153054     (Bohr^-1)         |
 | b-vector 2 :        0.153054    0.153054    0.153054     (Bohr^-1)         |
 | b-vector 3 :       -0.153054   -0.153054    0.153054     (Bohr^-1)         |
 | b-vector 4 :       -0.153054    0.153054    0.153054     (Bohr^-1)         |
 | b-vector 5 :        0.153054   -0.153054    0.153054     (Bohr^-1)         |
 | b-vector 6 :       -0.153054   -0.153054   -0.153054     (Bohr^-1)         |
 | b-vector 7 :        0.153054    0.153054   -0.153054     (Bohr^-1)         |
 | b-vector 8 :        0.153054   -0.153054   -0.153054     (Bohr^-1)         |
 | Shell:  1 w_b    5.3360380     (Bohr^2)                                    |
 | The following shells are used:   1                                         |
 +----------------------------------------------------------------------------+
 |                        Shell   # Nearest-Neighbours                        |
 |                        -----   --------------------                        |
 |                          1               8                                 |
 +----------------------------------------------------------------------------+
 | Completeness relation is fully satisfied [Eq. (B1), PRB 56, 12847 (1997)]  |
 +----------------------------------------------------------------------------+
 |                 b_k Vectors (Bohr^-1) and Weights (Bohr^2)                 |
 |                 ------------------------------------------                 |
 |            No.         b_k(x)      b_k(y)      b_k(z)        w_b           |
 |            ---        --------------------------------     --------        |
 |             1        -0.153054    0.153054   -0.153054     5.336038        |
 |             2         0.153054    0.153054    0.153054     5.336038        |
 |             3        -0.153054   -0.153054    0.153054     5.336038        |
 |             4        -0.153054    0.153054    0.153054     5.336038        |
 |             5         0.153054   -0.153054    0.153054     5.336038        |
 |             6        -0.153054   -0.153054   -0.153054     5.336038        |
 |             7         0.153054    0.153054   -0.153054     5.336038        |
 |             8         0.153054   -0.153054   -0.153054     5.336038        |
 +----------------------------------------------------------------------------+
 |                           b_k Directions (Bohr^-1)                         |
 |                           ------------------------                         |
 |            No.           x           y           z                         |
 |            ---        --------------------------------                     |
 |             1        -0.153054    0.153054   -0.153054                     |
 |             2         0.153054    0.153054    0.153054                     |
 |             3        -0.153054   -0.153054    0.153054                     |
 |             4        -0.153054    0.153054    0.153054                     |
 +----------------------------------------------------------------------------+
  
 Time to get kmesh              0.019 (sec)
 *============================================================================*
 |                              MEMORY ESTIMATE                               |
 |         Maximum RAM allocated during each phase of the calculation         |
 *============================================================================*
 |                            Wannierise:            8.27 Mb                  |
 |                                                                            |
 |   N.B. by setting optimisation=0 memory usage will be reduced to:          |
 |                            Wannierise:            5.15 Mb                  |
 |   However, this will result in more i/o and slow down the calculation      |
 |                          plot_wannier:            8.27 Mb                  |
 *----------------------------------------------------------------------------*
  
 Starting a new Wannier90 calculation ...


 Reading overlaps from si.mmn    :  Created on  4Nov2021 at 18:42:27
 Before bloch phase            (0.93993164657299999,-0.32490530497199999)

 Reading projections from si.amn :  Created on  4Nov2021 at 18:42:27  with SCDM
 u 111       (0.22039738783900001,-4.69504362719999971E-002)
 u 121       (0.21655772957600000,-2.27606295770000008E-002)
 After bloch phase            (0.93993164657299999,-0.32490530497199999)
 running overlap_project
       (0.22039738783900001,-4.69504362719999971E-002)
       (0.21655772957600000,-2.27606295770000008E-002)
       (-0.99367464528399996,4.05666882969999976E-002)
 end of overlap read             (0.68113682870651748,0.19441556350251432)
 right after overlap read             (0.68113682870651748,0.19441556350251432)

 Time to read overlaps          0.190 (sec)

 Writing checkpoint file si.chk... done

 at the start of wannierize             (0.68113682870651748,0.19441556350251432)

 *------------------------------- WANNIERISE ---------------------------------*
 +--------------------------------------------------------------------+<-- CONV
 | Iter  Delta Spread     RMS Gradient      Spread (Bohr^2)     Time  |<-- CONV
 +--------------------------------------------------------------------+<-- CONV

 wb
   1.4942428241390280     
  0.28923071891114616     
  0.28923071891114616     
  0.28923071891114616     
 ------------------------------------------------------------------------------
             (0.68113682870651748,0.19441556350251432)
 Initial State
  WF centre and spread    1  (  1.751302, -3.656156, -3.154520 )    15.47179726
  WF centre and spread    2  (  0.662933,  1.224859,  0.588340 )    13.17038702
  WF centre and spread    3  (  0.751350, -1.252297,  0.334295 )     7.64407335
  WF centre and spread    4  (  0.745342,  0.390014, -1.239850 )     8.25678268
  WF centre and spread    5  ( -1.204118,  0.700036,  0.596825 )     9.77938941
  WF centre and spread    6  ( -0.731020, -0.808056, -1.032846 )     7.87085298
  WF centre and spread    7  (  2.542534, -2.518040, -1.119903 )     9.17499993
  WF centre and spread    8  (  2.213292, -1.116839, -2.496139 )     8.44416108
  WF centre and spread    9  ( -1.433266, -1.527580,  1.371041 )     9.83532580
  WF centre and spread   10  (  2.083056, -2.221819, -3.950472 )    10.35456759
  WF centre and spread   11  (  3.593463, -3.384827, -3.215746 )    11.23672086
  WF centre and spread   12  (  0.129847, -0.030452,  1.388568 )     9.93107295
  WF centre and spread   13  ( -1.283663,  1.192107, -1.304339 )     8.86266731
  WF centre and spread   14  (  1.120100, -2.677675, -2.025788 )     7.67576041
  WF centre and spread   15  (  3.978456, -2.243099, -2.060208 )    10.03275833
  WF centre and spread   16  ( -3.917846,  1.254606,  1.095461 )    15.04579948
  WF centre and spread   17  ( -1.054748,  4.053913,  1.282466 )    14.16030120
  WF centre and spread   18  ( -1.549755,  1.039485,  4.050678 )    12.06222393
  WF centre and spread   19  ( -3.226431,  4.489533,  3.791046 )    13.83179659
  WF centre and spread   20  ( -2.434481,  2.608875,  2.188386 )    23.16652774
  Sum of centres and spreads (  2.736347, -4.483414, -4.912705 )   226.00796590

      0     0.226E+03     0.0000000000      226.0079658975       0.00  <-- CONV
        O_D=      4.6173871 O_OD=    128.8607251 O_TOT=    226.0079659 <-- SPRD
 ------------------------------------------------------------------------------
 Cycle:      1
 rnkb
           1           2           1 -0.77435903192928546     
           2           2           1  0.37898258521861283     
           3           2           1  -2.5506796089028554E-002
           4           2           1  -1.5993272115521068E-002
           5           2           1   1.4194668706583743E-002
           6           2           1 -0.39364378269660932     
           7           2           1 -0.16765698842222360     
           8           2           1 -0.21422792160960646     
           9           2           1 -0.24332645869037620     
          10           2           1 -0.62587493600621569     
          11           2           1 -0.46025113014958635     
          12           2           1  0.22773916690812490     
          13           2           1 -0.21364782041938640     
          14           2           1 -0.54844900906025496     
          15           2           1  -4.9719994482208707E-002
          16           2           1 -0.23995541356133984     
          17           2           1  0.65532197372083267     
          18           2           1  0.54187471999880121     
          19           2           1  0.77355906845549804     
          20           2           1  0.36163362864997567     
 m matrix!
             (0.51130606080639185,0.54468481207629793)
   1.4942428241390280        1.4942428241390280        1.4942428241390280        1.4942428241390280        1.4942428241390280        1.4942428241390280        1.4942428241390280        1.4942428241390280     
 gradient!
        (0.0000000000000000,-2.89588732047005790E-002)  (-6.50366255112471980E-002,2.33213503851723916E-002) (-2.31003951750815596E-002,-7.90234635323724260E-003)  (-5.84584658047603467E-004,1.91681715993616622E-002)       (0.16094737978528517,-1.41772686830576294E-002)  (-2.63131640845353371E-002,2.13773913586990799E-002) (-3.77002949064640241E-002,-5.80868261451320533E-002)   (2.33641180322331533E-002,1.01266951368890051E-002)  (-3.31757136636838465E-002,6.51379468564497882E-002)   (2.64706582767112418E-002,3.87672090718196027E-002)  (-3.76325063985818928E-002,2.92837234732843061E-003)  (1.75055989451118220E-003,-4.29272421004532126E-002)  (-4.55602119221194257E-002,6.56171138723575000E-003)  (7.98572473712325925E-002,-2.11161958604519050E-002)        (0.12507339764252975,4.04150779575447507E-003)  (-3.79210897186743525E-003,5.74604816219117468E-003) (-6.50094076416881869E-003,-2.42858667979146577E-002) (-9.01619251990430984E-003,-7.49463872737146826E-003)   (1.57189623177843470E-002,2.17366479667984377E-002)  (-2.74432369706255758E-002,1.36648862450632139E-002)
  LINE --> Iteration                     :           1
 internal_new_u_and_m called.
 wb
   1.4942428241390280     
  0.28923071891114616     
  0.28923071891114616     
  0.28923071891114616     
  LINE --> Spread at initial point       :   226.00796589752250     
  LINE --> Spread at trial step          :   225.25570797587613     
  LINE --> Slope along search direction  : -0.37903862864598137     
  LINE --> ||SD gradient||^2             :   18.124024029624177     
  LINE --> Trial step length             :   2.0000000000000000     
  LINE --> Optimal parabolic step length :   130.26869447947661     
  LINE --> Spread at predicted minimum   :   201.31953224202093     
  LINE --> CG coefficient                :   0.0000000000000000     
 internal_new_u_and_m called.
 wb
   1.4942428241390280     
  0.28923071891114616     
  0.28923071891114616     
  0.28923071891114616     
  WF centre and spread    1  (  1.684315, -3.672790, -3.120020 )    14.02948721
  WF centre and spread    2  (  0.546843,  1.325207,  0.534736 )    11.20889701
  WF centre and spread    3  (  0.839502, -1.240995,  0.334904 )     6.55976830
  WF centre and spread    4  (  0.796226,  0.382627, -1.242936 )     7.35915932
  WF centre and spread    5  ( -1.290239,  0.701722,  0.572435 )     8.62593852
  WF centre and spread    6  ( -0.707018, -0.884096, -1.053712 )     7.13104669
  WF centre and spread    7  (  2.528730, -2.490930, -1.090820 )     8.36210560
  WF centre and spread    8  (  2.215038, -1.085910, -2.467999 )     7.51328621
  WF centre and spread    9  ( -1.346785, -1.483191,  1.306430 )     8.43031987
  WF centre and spread   10  (  2.066141, -2.215737, -3.980132 )     9.24917533
  WF centre and spread   11  (  3.591562, -3.408733, -3.230586 )    10.09282269
  WF centre and spread   12  (  0.129393, -0.030218,  1.412730 )     8.96726439
  WF centre and spread   13  ( -1.299306,  1.174844, -1.316892 )     8.18927436
  WF centre and spread   14  (  1.056948, -2.677138, -2.057401 )     6.56026381
  WF centre and spread   15  (  4.018925, -2.231091, -2.027695 )     8.99123593
  WF centre and spread   16  ( -3.971758,  1.247932,  1.047898 )    13.74577176
  WF centre and spread   17  ( -1.027066,  4.065758,  1.270442 )    13.05730933
  WF centre and spread   18  ( -1.569129,  1.031365,  4.118956 )    11.18859847
  WF centre and spread   19  ( -3.228257,  4.544610,  3.825344 )    12.62982626
  WF centre and spread   20  ( -2.566581,  2.597227,  2.277695 )    21.94648124
  Sum of centres and spreads (  2.467482, -4.349537, -4.886621 )   203.83803229

      1    -0.222E+02     4.2572319680      203.8380322914       0.02  <-- CONV
        O_D=      4.0814557 O_OD=    107.2267230 O_TOT=    203.8380323 <-- SPRD
 Delta: O_D= -0.5359315E+00 O_OD= -0.2163400E+02 O_TOT= -0.2216993E+02 <-- DLTA
 ------------------------------------------------------------------------------
 Cycle:      2
 rnkb
           1           2           1 -0.78187708042154735     
           2           2           1  0.36836886454441958     
           3           2           1  -1.0191744351342596E-002
           4           2           1  -9.8082345675188365E-003
           5           2           1  -2.4614187833407325E-003
           6           2           1 -0.40480200983762538     
           7           2           1 -0.16116933625548910     
           8           2           1 -0.20491984415800699     
           9           2           1 -0.23318524538559587     
          10           2           1 -0.63207253859059953     
          11           2           1 -0.46647214326937109     
          12           2           1  0.23140351504521456     
          13           2           1 -0.22060550438670096     
          14           2           1 -0.56287122050239047     
          15           2           1  -3.6711669693160864E-002
          16           2           1 -0.25650802331809730     
          17           2           1  0.65953146666730789     
          18           2           1  0.54811681525128519     
          19           2           1  0.78695879735871122     
          20           2           1  0.35330157924649291     
 m matrix!
             (0.57066539496141055,0.53794158347964027)
   1.4942428241390280        1.4942428241390280        1.4942428241390280        1.4942428241390280        1.4942428241390280        1.4942428241390280        1.4942428241390280        1.4942428241390280     
 gradient!
         (0.0000000000000000,5.03837082242295509E-002)  (-2.89221874678153752E-002,1.92924977965381189E-002)  (-3.83099885626306813E-002,1.09794869980248695E-002) (-3.97688481780582512E-002,-8.51365562706747452E-003)  (-2.68638350051034099E-002,4.56352348479056608E-003)  (2.66349860096355730E-002,-1.36981388258316621E-002) (-2.81569344509750956E-002,-1.93689147943689713E-003)  (-4.26888014882815178E-002,6.48401635988777800E-003)  (1.62061302175507023E-002,-1.05989779895915275E-002) (-4.29475183773160435E-002,-1.89890482153006954E-002)  (4.40422264022131624E-002,-3.87933305206652861E-003) (-2.78632351242923508E-002,-3.60208917370893021E-003)   (2.19742834334069811E-002,3.48990452856971344E-003)   (5.38600884087721554E-002,1.94077690899850685E-003)  (2.07474761588342417E-002,-1.65958170562098377E-003)  (1.39497515340769908E-002,-5.31409339693454229E-003)  (-1.06054349990798435E-002,1.08667259586921697E-002)   (1.21520118828120586E-002,6.54294921537084545E-003) (-2.74578091192037924E-002,-3.92018937258285880E-003)  (1.29194473660416195E-002,-5.66953038031721077E-003)
  LINE --> Iteration                     :           2
 internal_new_u_and_m called.
 wb
   1.4942428241390280     
  0.28923071891114616     
  0.28923071891114616     
  0.28923071891114616     
  LINE --> Spread at initial point       :   203.83803229137172     
  LINE --> Spread at trial step          :   203.40658398747516     
  LINE --> Slope along search direction  : -0.21851318487552540     
  LINE --> ||SD gradient||^2             :   12.062438211580290     
  LINE --> Trial step length             :   2.0000000000000000     
  LINE --> Optimal parabolic step length :   78.347294770667745     
  LINE --> Spread at predicted minimum   :   195.27807383801164     
  LINE --> CG coefficient                :  0.66554966997748011     
 internal_new_u_and_m called.
 wb
   1.4942428241390280     
  0.28923071891114616     
  0.28923071891114616     
  0.28923071891114616     
  WF centre and spread    1  (  1.633365, -3.707122, -3.136390 )    13.08249574
  WF centre and spread    2  (  0.461982,  1.391278,  0.479681 )    10.54182205
  WF centre and spread    3  (  0.901312, -1.218749,  0.329818 )     6.18586899
  WF centre and spread    4  (  0.833209,  0.368614, -1.235269 )     6.98475929
  WF centre and spread    5  ( -1.339024,  0.685879,  0.549202 )     8.08984300
  WF centre and spread    6  ( -0.674790, -0.924960, -1.064680 )     6.92522148
  WF centre and spread    7  (  2.519995, -2.474365, -1.075998 )     8.06865197
  WF centre and spread    8  (  2.216440, -1.063979, -2.442548 )     7.13591316
  WF centre and spread    9  ( -1.291452, -1.455158,  1.258025 )     8.03443873
  WF centre and spread   10  (  2.063674, -2.224431, -3.998196 )     8.84608630
  WF centre and spread   11  (  3.583505, -3.415301, -3.241078 )     9.54613840
  WF centre and spread   12  (  0.126191, -0.030020,  1.427551 )     8.59097005
  WF centre and spread   13  ( -1.313094,  1.172587, -1.332683 )     8.10025687
  WF centre and spread   14  (  1.025430, -2.669872, -2.087524 )     6.23214441
  WF centre and spread   15  (  4.037809, -2.235266, -2.015289 )     8.69860641
  WF centre and spread   16  ( -4.012597,  1.266902,  1.017960 )    13.19347470
  WF centre and spread   17  ( -1.004822,  4.066596,  1.270970 )    12.44758515
  WF centre and spread   18  ( -1.593342,  1.026084,  4.179039 )    10.87235912
  WF centre and spread   19  ( -3.221479,  4.576217,  3.847004 )    12.10145273
  WF centre and spread   20  ( -2.612221,  2.583467,  2.303808 )    21.87752076
  Sum of centres and spreads (  2.340089, -4.281599, -4.966597 )   195.55560933

      2    -0.828E+01     3.4731021021      195.5556093257       0.05  <-- CONV
        O_D=      2.8580053 O_OD=    100.1677503 O_TOT=    195.5556093 <-- SPRD
 Delta: O_D= -0.1223450E+01 O_OD= -0.7058973E+01 O_TOT= -0.8282423E+01 <-- DLTA
 ------------------------------------------------------------------------------
 Final State
  WF centre and spread    1  (  1.633365, -3.707122, -3.136390 )    13.08249574
  WF centre and spread    2  (  0.461982,  1.391278,  0.479681 )    10.54182205
  WF centre and spread    3  (  0.901312, -1.218749,  0.329818 )     6.18586899
  WF centre and spread    4  (  0.833209,  0.368614, -1.235269 )     6.98475929
  WF centre and spread    5  ( -1.339024,  0.685879,  0.549202 )     8.08984300
  WF centre and spread    6  ( -0.674790, -0.924960, -1.064680 )     6.92522148
  WF centre and spread    7  (  2.519995, -2.474365, -1.075998 )     8.06865197
  WF centre and spread    8  (  2.216440, -1.063979, -2.442548 )     7.13591316
  WF centre and spread    9  ( -1.291452, -1.455158,  1.258025 )     8.03443873
  WF centre and spread   10  (  2.063674, -2.224431, -3.998196 )     8.84608630
  WF centre and spread   11  (  3.583505, -3.415301, -3.241078 )     9.54613840
  WF centre and spread   12  (  0.126191, -0.030020,  1.427551 )     8.59097005
  WF centre and spread   13  ( -1.313094,  1.172587, -1.332683 )     8.10025687
  WF centre and spread   14  (  1.025430, -2.669872, -2.087524 )     6.23214441
  WF centre and spread   15  (  4.037809, -2.235266, -2.015289 )     8.69860641
  WF centre and spread   16  ( -4.012597,  1.266902,  1.017960 )    13.19347470
  WF centre and spread   17  ( -1.004822,  4.066596,  1.270970 )    12.44758515
  WF centre and spread   18  ( -1.593342,  1.026084,  4.179039 )    10.87235912
  WF centre and spread   19  ( -3.221479,  4.576217,  3.847004 )    12.10145273
  WF centre and spread   20  ( -2.612221,  2.583467,  2.303808 )    21.87752076
  Sum of centres and spreads (  2.340089, -4.281599, -4.966597 )   195.55560933

        Spreads (Bohr^2)       Omega I      =    92.529853668
        ================       Omega D      =     2.858005331
                               Omega OD     =   100.167750327
   Final Spread (Bohr^2)       Omega Total  =   195.555609326
 ------------------------------------------------------------------------------
 Final centres (translated to home cell for writing xyz file)
  WF centre    1  ( -8.629635,  6.555878,  7.126610 )
  WF centre    2  ( -4.669518,  1.391278,  5.611181 )
  WF centre    3  ( -4.230188,  3.912751,  0.329818 )
  WF centre    4  ( -4.298291,  5.500114,  9.027731 )
  WF centre    5  ( -1.339024,  5.817379,  5.680702 )
  WF centre    6  ( -0.674790,  4.206540,  4.066820 )
  WF centre    7  ( -7.743005,  7.788635,  9.187002 )
  WF centre    8  ( -8.046560,  9.199021,  7.820452 )
  WF centre    9  ( -6.422952,  8.807842,  6.389525 )
  WF centre   10  ( -8.199326,  8.038569,  6.264804 )
  WF centre   11  ( -6.679495,  6.847699,  7.021922 )
  WF centre   12  ( -5.005309,  5.101480,  1.427551 )
  WF centre   13  ( -6.444594,  6.304087,  8.930317 )
  WF centre   14  ( -9.237570,  7.593128,  8.175476 )
  WF centre   15  ( -6.225191,  8.027734,  8.247711 )
  WF centre   16  ( -4.012597,  6.398402,  6.149460 )
  WF centre   17  ( -6.136322,  4.066596,  6.402470 )
  WF centre   18  ( -6.724842,  6.157584,  4.179039 )
  WF centre   19  ( -3.221479,  4.576217,  3.847004 )
  WF centre   20  ( -2.612221,  2.583467,  2.303808 )
 ------------------------------------------------------------------------------


 Wannier centres written to file si_centres.xyz
  
  Omega Invariant:   1-s^2 =    92.529853668 (Bohr^2)
                   -2log s =   400.266602658 (Bohr^2)
                    acos^2 =   161.143733697 (Bohr^2)
 Time for wannierise            0.401 (sec)

 Writing checkpoint file si.chk... done

 *---------------------------------------------------------------------------*
 |                               PLOTTING                                    |
 *---------------------------------------------------------------------------*

 Time for plotting              0.019 (sec)
 Total Execution Time           0.637 (sec)

 *===========================================================================*
 |                             TIMING INFORMATION                            |
 *===========================================================================*
 |    Tag                                                Ncalls      Time (s)|
 |---------------------------------------------------------------------------|
 |kmesh: get                                        :         1         0.019|
 |overlap: allocate                                 :         1         0.001|
 |overlap: read                                     :         1         0.189|
 |wann: main                                        :         1         0.401|
 |plot: main                                        :         1         0.019|
 *---------------------------------------------------------------------------*

 All done: wannier90 exiting
